+ 0 0 1 sctp 56 ------- 0 0.0 1.0 -1 2
- 0 0 1 sctp 56 ------- 0 0.0 1.0 -1 2
r 0.025448 0 1 sctp 56 ------- 0 0.0 1.0 -1 2
+ 0.025448 1 0 sctp 56 ------- 0 1.0 0.0 -1 3
- 0.025448 1 0 sctp 56 ------- 0 1.0 0.0 -1 3
r 0.050896 1 0 sctp 56 ------- 0 1.0 0.0 -1 3
+ 0.050896 0 1 sctp 36 ------- 0 0.0 1.0 -1 4
- 0.050896 0 1 sctp 36 ------- 0 0.0 1.0 -1 4
r 0.076184 0 1 sctp 36 ------- 0 0.0 1.0 -1 4
+ 0.076184 1 0 sctp 36 ------- 0 1.0 0.0 -1 5
- 0.076184 1 0 sctp 36 ------- 0 1.0 0.0 -1 5
r 0.101472 1 0 sctp 36 ------- 0 1.0 0.0 -1 5
+ 0.101472 0 1 sctp 56 ------- 0 0.0 1.0 -1 6
- 0.101472 0 1 sctp 56 ------- 0 0.0 1.0 -1 6
r 0.12692 0 1 sctp 56 ------- 0 0.0 1.0 -1 6
+ 0.12692 1 0 sctp 56 ------- 0 1.0 0.0 -1 7
- 0.12692 1 0 sctp 56 ------- 0 1.0 0.0 -1 7
r 0.152368 1 0 sctp 56 ------- 0 1.0 0.0 -1 7
+ 0.152368 0 1 sctp 1500 ------- 0 0.0 1.0 -1 8
- 0.152368 0 1 sctp 1500 ------- 0 0.0 1.0 -1 8
+ 0.152368 0 1 sctp 1500 ------- 0 0.0 1.0 -1 9
- 0.164368 0 1 sctp 1500 ------- 0 0.0 1.0 -1 9
r 0.189368 0 1 sctp 1500 ------- 0 0.0 1.0 -1 8
r 0.201368 0 1 sctp 1500 ------- 0 0.0 1.0 -1 9
+ 0.201368 1 0 sctp 48 ------- 0 1.0 0.0 -1 10
- 0.201368 1 0 sctp 48 ------- 0 1.0 0.0 -1 10
r 0.226752 1 0 sctp 48 ------- 0 1.0 0.0 -1 10
+ 0.226752 0 1 sctp 1500 ------- 0 0.0 1.0 -1 11
- 0.226752 0 1 sctp 1500 ------- 0 0.0 1.0 -1 11
+ 0.226752 0 1 sctp 1500 ------- 0 0.0 1.0 -1 12
+ 0.226752 0 1 sctp 1500 ------- 0 0.0 1.0 -1 13
- 0.238752 0 1 sctp 1500 ------- 0 0.0 1.0 -1 12
- 0.250752 0 1 sctp 1500 ------- 0 0.0 1.0 -1 13
r 0.263752 0 1 sctp 1500 ------- 0 0.0 1.0 -1 11
r 0.275752 0 1 sctp 1500 ------- 0 0.0 1.0 -1 12
+ 0.275752 1 0 sctp 48 ------- 0 1.0 0.0 -1 14
- 0.275752 1 0 sctp 48 ------- 0 1.0 0.0 -1 14
r 0.287752 0 1 sctp 1500 ------- 0 0.0 1.0 -1 13
r 0.301136 1 0 sctp 48 ------- 0 1.0 0.0 -1 14
+ 0.301136 0 1 sctp 1500 ------- 0 0.0 1.0 -1 15
- 0.301136 0 1 sctp 1500 ------- 0 0.0 1.0 -1 15
+ 0.301136 0 1 sctp 1500 ------- 0 0.0 1.0 -1 16
+ 0.301136 0 1 sctp 1500 ------- 0 0.0 1.0 -1 17
- 0.313136 0 1 sctp 1500 ------- 0 0.0 1.0 -1 16
- 0.325136 0 1 sctp 1500 ------- 0 0.0 1.0 -1 17
r 0.338136 0 1 sctp 1500 ------- 0 0.0 1.0 -1 15
+ 0.338136 1 0 sctp 48 ------- 0 1.0 0.0 -1 18
- 0.338136 1 0 sctp 48 ------- 0 1.0 0.0 -1 18
r 0.350136 0 1 sctp 1500 ------- 0 0.0 1.0 -1 16
r 0.362136 0 1 sctp 1500 ------- 0 0.0 1.0 -1 17
+ 0.362136 1 0 sctp 48 ------- 0 1.0 0.0 -1 19
- 0.362136 1 0 sctp 48 ------- 0 1.0 0.0 -1 19
r 0.36352 1 0 sctp 48 ------- 0 1.0 0.0 -1 18
+ 0.36352 0 1 sctp 1500 ------- 0 0.0 1.0 -1 20
- 0.36352 0 1 sctp 1500 ------- 0 0.0 1.0 -1 20
+ 0.36352 0 1 sctp 1500 ------- 0 0.0 1.0 -1 21
+ 0.36352 0 1 sctp 1500 ------- 0 0.0 1.0 -1 22
- 0.37552 0 1 sctp 1500 ------- 0 0.0 1.0 -1 21
r 0.38752 1 0 sctp 48 ------- 0 1.0 0.0 -1 19
+ 0.38752 0 1 sctp 1500 ------- 0 0.0 1.0 -1 23
+ 0.38752 0 1 sctp 1500 ------- 0 0.0 1.0 -1 24
+ 0.38752 0 1 sctp 1500 ------- 0 0.0 1.0 -1 25
- 0.38752 0 1 sctp 1500 ------- 0 0.0 1.0 -1 22
- 0.39952 0 1 sctp 1500 ------- 0 0.0 1.0 -1 23
r 0.40052 0 1 sctp 1500 ------- 0 0.0 1.0 -1 20
- 0.41152 0 1 sctp 1500 ------- 0 0.0 1.0 -1 24
r 0.41252 0 1 sctp 1500 ------- 0 0.0 1.0 -1 21
+ 0.41252 1 0 sctp 48 ------- 0 1.0 0.0 -1 26
- 0.41252 1 0 sctp 48 ------- 0 1.0 0.0 -1 26
- 0.42352 0 1 sctp 1500 ------- 0 0.0 1.0 -1 25
r 0.42452 0 1 sctp 1500 ------- 0 0.0 1.0 -1 22
r 0.43652 0 1 sctp 1500 ------- 0 0.0 1.0 -1 23
+ 0.43652 1 0 sctp 48 ------- 0 1.0 0.0 -1 27
- 0.43652 1 0 sctp 48 ------- 0 1.0 0.0 -1 27
r 0.437904 1 0 sctp 48 ------- 0 1.0 0.0 -1 26
+ 0.437904 0 1 sctp 1500 ------- 0 0.0 1.0 -1 28
- 0.437904 0 1 sctp 1500 ------- 0 0.0 1.0 -1 28
+ 0.437904 0 1 sctp 1500 ------- 0 0.0 1.0 -1 29
+ 0.437904 0 1 sctp 1500 ------- 0 0.0 1.0 -1 30
r 0.44852 0 1 sctp 1500 ------- 0 0.0 1.0 -1 24
- 0.449904 0 1 sctp 1500 ------- 0 0.0 1.0 -1 29
r 0.46052 0 1 sctp 1500 ------- 0 0.0 1.0 -1 25
+ 0.46052 1 0 sctp 48 ------- 0 1.0 0.0 -1 31
- 0.46052 1 0 sctp 48 ------- 0 1.0 0.0 -1 31
r 0.461904 1 0 sctp 48 ------- 0 1.0 0.0 -1 27
+ 0.461904 0 1 sctp 1500 ------- 0 0.0 1.0 -1 32
+ 0.461904 0 1 sctp 1500 ------- 0 0.0 1.0 -1 33
+ 0.461904 0 1 sctp 1500 ------- 0 0.0 1.0 -1 34
- 0.461904 0 1 sctp 1500 ------- 0 0.0 1.0 -1 30
- 0.473904 0 1 sctp 1500 ------- 0 0.0 1.0 -1 32
r 0.474904 0 1 sctp 1500 ------- 0 0.0 1.0 -1 28
r 0.485904 1 0 sctp 48 ------- 0 1.0 0.0 -1 31
+ 0.485904 0 1 sctp 1500 ------- 0 0.0 1.0 -1 35
+ 0.485904 0 1 sctp 1500 ------- 0 0.0 1.0 -1 36
+ 0.485904 0 1 sctp 1500 ------- 0 0.0 1.0 -1 37
- 0.485904 0 1 sctp 1500 ------- 0 0.0 1.0 -1 33
r 0.486904 0 1 sctp 1500 ------- 0 0.0 1.0 -1 29
+ 0.486904 1 0 sctp 48 ------- 0 1.0 0.0 -1 38
- 0.486904 1 0 sctp 48 ------- 0 1.0 0.0 -1 38
- 0.497904 0 1 sctp 1500 ------- 0 0.0 1.0 -1 34
r 0.498904 0 1 sctp 1500 ------- 0 0.0 1.0 -1 30
- 0.509904 0 1 sctp 1500 ------- 0 0.0 1.0 -1 35
r 0.510904 0 1 sctp 1500 ------- 0 0.0 1.0 -1 32
+ 0.510904 1 0 sctp 48 ------- 0 1.0 0.0 -1 39
- 0.510904 1 0 sctp 48 ------- 0 1.0 0.0 -1 39
r 0.512288 1 0 sctp 48 ------- 0 1.0 0.0 -1 38
+ 0.512288 0 1 sctp 1500 ------- 0 0.0 1.0 -1 40
+ 0.512288 0 1 sctp 1500 ------- 0 0.0 1.0 -1 41
+ 0.512288 0 1 sctp 1500 ------- 0 0.0 1.0 -1 42
- 0.521904 0 1 sctp 1500 ------- 0 0.0 1.0 -1 36
r 0.522904 0 1 sctp 1500 ------- 0 0.0 1.0 -1 33
- 0.533904 0 1 sctp 1500 ------- 0 0.0 1.0 -1 37
r 0.534904 0 1 sctp 1500 ------- 0 0.0 1.0 -1 34
+ 0.534904 1 0 sctp 48 ------- 0 1.0 0.0 -1 43
- 0.534904 1 0 sctp 48 ------- 0 1.0 0.0 -1 43
r 0.536288 1 0 sctp 48 ------- 0 1.0 0.0 -1 39
+ 0.536288 0 1 sctp 1500 ------- 0 0.0 1.0 -1 44
+ 0.536288 0 1 sctp 1500 ------- 0 0.0 1.0 -1 45
+ 0.536288 0 1 sctp 1500 ------- 0 0.0 1.0 -1 46
- 0.545904 0 1 sctp 1500 ------- 0 0.0 1.0 -1 40
r 0.546904 0 1 sctp 1500 ------- 0 0.0 1.0 -1 35
- 0.557904 0 1 sctp 1500 ------- 0 0.0 1.0 -1 41
r 0.558904 0 1 sctp 1500 ------- 0 0.0 1.0 -1 36
+ 0.558904 1 0 sctp 48 ------- 0 1.0 0.0 -1 47
- 0.558904 1 0 sctp 48 ------- 0 1.0 0.0 -1 47
r 0.560288 1 0 sctp 48 ------- 0 1.0 0.0 -1 43
+ 0.560288 0 1 sctp 1500 ------- 0 0.0 1.0 -1 48
+ 0.560288 0 1 sctp 1500 ------- 0 0.0 1.0 -1 49
+ 0.560288 0 1 sctp 1500 ------- 0 0.0 1.0 -1 50
- 0.569904 0 1 sctp 1500 ------- 0 0.0 1.0 -1 42
r 0.570904 0 1 sctp 1500 ------- 0 0.0 1.0 -1 37
- 0.581904 0 1 sctp 1500 ------- 0 0.0 1.0 -1 44
r 0.582904 0 1 sctp 1500 ------- 0 0.0 1.0 -1 40
+ 0.582904 1 0 sctp 48 ------- 0 1.0 0.0 -1 51
- 0.582904 1 0 sctp 48 ------- 0 1.0 0.0 -1 51
r 0.584288 1 0 sctp 48 ------- 0 1.0 0.0 -1 47
+ 0.584288 0 1 sctp 1500 ------- 0 0.0 1.0 -1 52
+ 0.584288 0 1 sctp 1500 ------- 0 0.0 1.0 -1 53
+ 0.584288 0 1 sctp 1500 ------- 0 0.0 1.0 -1 54
- 0.593904 0 1 sctp 1500 ------- 0 0.0 1.0 -1 45
r 0.594904 0 1 sctp 1500 ------- 0 0.0 1.0 -1 41
- 0.605904 0 1 sctp 1500 ------- 0 0.0 1.0 -1 46
r 0.606904 0 1 sctp 1500 ------- 0 0.0 1.0 -1 42
+ 0.606904 1 0 sctp 48 ------- 0 1.0 0.0 -1 55
- 0.606904 1 0 sctp 48 ------- 0 1.0 0.0 -1 55
r 0.608288 1 0 sctp 48 ------- 0 1.0 0.0 -1 51
+ 0.608288 0 1 sctp 1500 ------- 0 0.0 1.0 -1 56
+ 0.608288 0 1 sctp 1500 ------- 0 0.0 1.0 -1 57
+ 0.608288 0 1 sctp 1500 ------- 0 0.0 1.0 -1 58
- 0.617904 0 1 sctp 1500 ------- 0 0.0 1.0 -1 48
r 0.618904 0 1 sctp 1500 ------- 0 0.0 1.0 -1 44
- 0.629904 0 1 sctp 1500 ------- 0 0.0 1.0 -1 49
r 0.630904 0 1 sctp 1500 ------- 0 0.0 1.0 -1 45
+ 0.630904 1 0 sctp 48 ------- 0 1.0 0.0 -1 59
- 0.630904 1 0 sctp 48 ------- 0 1.0 0.0 -1 59
r 0.632288 1 0 sctp 48 ------- 0 1.0 0.0 -1 55
+ 0.632288 0 1 sctp 1500 ------- 0 0.0 1.0 -1 60
+ 0.632288 0 1 sctp 1500 ------- 0 0.0 1.0 -1 61
+ 0.632288 0 1 sctp 1500 ------- 0 0.0 1.0 -1 62
- 0.641904 0 1 sctp 1500 ------- 0 0.0 1.0 -1 50
r 0.642904 0 1 sctp 1500 ------- 0 0.0 1.0 -1 46
- 0.653904 0 1 sctp 1500 ------- 0 0.0 1.0 -1 52
r 0.654904 0 1 sctp 1500 ------- 0 0.0 1.0 -1 48
+ 0.654904 1 0 sctp 48 ------- 0 1.0 0.0 -1 63
- 0.654904 1 0 sctp 48 ------- 0 1.0 0.0 -1 63
r 0.656288 1 0 sctp 48 ------- 0 1.0 0.0 -1 59
+ 0.656288 0 1 sctp 1500 ------- 0 0.0 1.0 -1 64
+ 0.656288 0 1 sctp 1500 ------- 0 0.0 1.0 -1 65
+ 0.656288 0 1 sctp 1500 ------- 0 0.0 1.0 -1 66
- 0.665904 0 1 sctp 1500 ------- 0 0.0 1.0 -1 53
r 0.666904 0 1 sctp 1500 ------- 0 0.0 1.0 -1 49
- 0.677904 0 1 sctp 1500 ------- 0 0.0 1.0 -1 54
r 0.678904 0 1 sctp 1500 ------- 0 0.0 1.0 -1 50
+ 0.678904 1 0 sctp 48 ------- 0 1.0 0.0 -1 67
- 0.678904 1 0 sctp 48 ------- 0 1.0 0.0 -1 67
r 0.680288 1 0 sctp 48 ------- 0 1.0 0.0 -1 63
+ 0.680288 0 1 sctp 1500 ------- 0 0.0 1.0 -1 68
+ 0.680288 0 1 sctp 1500 ------- 0 0.0 1.0 -1 69
+ 0.680288 0 1 sctp 1500 ------- 0 0.0 1.0 -1 70
- 0.689904 0 1 sctp 1500 ------- 0 0.0 1.0 -1 56
r 0.690904 0 1 sctp 1500 ------- 0 0.0 1.0 -1 52
- 0.701904 0 1 sctp 1500 ------- 0 0.0 1.0 -1 57
r 0.702904 0 1 sctp 1500 ------- 0 0.0 1.0 -1 53
+ 0.702904 1 0 sctp 48 ------- 0 1.0 0.0 -1 71
- 0.702904 1 0 sctp 48 ------- 0 1.0 0.0 -1 71
r 0.704288 1 0 sctp 48 ------- 0 1.0 0.0 -1 67
+ 0.704288 0 1 sctp 1500 ------- 0 0.0 1.0 -1 72
+ 0.704288 0 1 sctp 1500 ------- 0 0.0 1.0 -1 73
+ 0.704288 0 1 sctp 1500 ------- 0 0.0 1.0 -1 74
- 0.713904 0 1 sctp 1500 ------- 0 0.0 1.0 -1 58
r 0.714904 0 1 sctp 1500 ------- 0 0.0 1.0 -1 54
- 0.725904 0 1 sctp 1500 ------- 0 0.0 1.0 -1 60
r 0.726904 0 1 sctp 1500 ------- 0 0.0 1.0 -1 56
+ 0.726904 1 0 sctp 48 ------- 0 1.0 0.0 -1 75
- 0.726904 1 0 sctp 48 ------- 0 1.0 0.0 -1 75
r 0.728288 1 0 sctp 48 ------- 0 1.0 0.0 -1 71
+ 0.728288 0 1 sctp 1500 ------- 0 0.0 1.0 -1 76
+ 0.728288 0 1 sctp 1500 ------- 0 0.0 1.0 -1 77
+ 0.728288 0 1 sctp 1500 ------- 0 0.0 1.0 -1 78
- 0.737904 0 1 sctp 1500 ------- 0 0.0 1.0 -1 61
r 0.738904 0 1 sctp 1500 ------- 0 0.0 1.0 -1 57
- 0.749904 0 1 sctp 1500 ------- 0 0.0 1.0 -1 62
r 0.750904 0 1 sctp 1500 ------- 0 0.0 1.0 -1 58
+ 0.750904 1 0 sctp 48 ------- 0 1.0 0.0 -1 79
- 0.750904 1 0 sctp 48 ------- 0 1.0 0.0 -1 79
r 0.752288 1 0 sctp 48 ------- 0 1.0 0.0 -1 75
+ 0.752288 0 1 sctp 1500 ------- 0 0.0 1.0 -1 80
+ 0.752288 0 1 sctp 1500 ------- 0 0.0 1.0 -1 81
+ 0.752288 0 1 sctp 1500 ------- 0 0.0 1.0 -1 82
- 0.761904 0 1 sctp 1500 ------- 0 0.0 1.0 -1 64
r 0.762904 0 1 sctp 1500 ------- 0 0.0 1.0 -1 60
- 0.773904 0 1 sctp 1500 ------- 0 0.0 1.0 -1 65
r 0.774904 0 1 sctp 1500 ------- 0 0.0 1.0 -1 61
+ 0.774904 1 0 sctp 48 ------- 0 1.0 0.0 -1 83
- 0.774904 1 0 sctp 48 ------- 0 1.0 0.0 -1 83
r 0.776288 1 0 sctp 48 ------- 0 1.0 0.0 -1 79
+ 0.776288 0 1 sctp 1500 ------- 0 0.0 1.0 -1 84
+ 0.776288 0 1 sctp 1500 ------- 0 0.0 1.0 -1 85
+ 0.776288 0 1 sctp 1500 ------- 0 0.0 1.0 -1 86
- 0.785904 0 1 sctp 1500 ------- 0 0.0 1.0 -1 66
r 0.786904 0 1 sctp 1500 ------- 0 0.0 1.0 -1 62
- 0.797904 0 1 sctp 1500 ------- 0 0.0 1.0 -1 68
r 0.798904 0 1 sctp 1500 ------- 0 0.0 1.0 -1 64
+ 0.798904 1 0 sctp 48 ------- 0 1.0 0.0 -1 87
- 0.798904 1 0 sctp 48 ------- 0 1.0 0.0 -1 87
r 0.800288 1 0 sctp 48 ------- 0 1.0 0.0 -1 83
+ 0.800288 0 1 sctp 1500 ------- 0 0.0 1.0 -1 88
+ 0.800288 0 1 sctp 1500 ------- 0 0.0 1.0 -1 89
+ 0.800288 0 1 sctp 1500 ------- 0 0.0 1.0 -1 90
- 0.809904 0 1 sctp 1500 ------- 0 0.0 1.0 -1 69
r 0.810904 0 1 sctp 1500 ------- 0 0.0 1.0 -1 65
- 0.821904 0 1 sctp 1500 ------- 0 0.0 1.0 -1 70
r 0.822904 0 1 sctp 1500 ------- 0 0.0 1.0 -1 66
+ 0.822904 1 0 sctp 48 ------- 0 1.0 0.0 -1 91
- 0.822904 1 0 sctp 48 ------- 0 1.0 0.0 -1 91
r 0.824288 1 0 sctp 48 ------- 0 1.0 0.0 -1 87
+ 0.824288 0 1 sctp 1500 ------- 0 0.0 1.0 -1 92
+ 0.824288 0 1 sctp 1500 ------- 0 0.0 1.0 -1 93
+ 0.824288 0 1 sctp 1500 ------- 0 0.0 1.0 -1 94
- 0.833904 0 1 sctp 1500 ------- 0 0.0 1.0 -1 72
r 0.834904 0 1 sctp 1500 ------- 0 0.0 1.0 -1 68
- 0.845904 0 1 sctp 1500 ------- 0 0.0 1.0 -1 73
r 0.846904 0 1 sctp 1500 ------- 0 0.0 1.0 -1 69
+ 0.846904 1 0 sctp 48 ------- 0 1.0 0.0 -1 95
- 0.846904 1 0 sctp 48 ------- 0 1.0 0.0 -1 95
r 0.848288 1 0 sctp 48 ------- 0 1.0 0.0 -1 91
+ 0.848288 0 1 sctp 1500 ------- 0 0.0 1.0 -1 96
+ 0.848288 0 1 sctp 1500 ------- 0 0.0 1.0 -1 97
+ 0.848288 0 1 sctp 1500 ------- 0 0.0 1.0 -1 98
- 0.857904 0 1 sctp 1500 ------- 0 0.0 1.0 -1 74
r 0.858904 0 1 sctp 1500 ------- 0 0.0 1.0 -1 70
- 0.869904 0 1 sctp 1500 ------- 0 0.0 1.0 -1 76
r 0.870904 0 1 sctp 1500 ------- 0 0.0 1.0 -1 72
+ 0.870904 1 0 sctp 48 ------- 0 1.0 0.0 -1 99
- 0.870904 1 0 sctp 48 ------- 0 1.0 0.0 -1 99
r 0.872288 1 0 sctp 48 ------- 0 1.0 0.0 -1 95
+ 0.872288 0 1 sctp 1500 ------- 0 0.0 1.0 -1 100
+ 0.872288 0 1 sctp 1500 ------- 0 0.0 1.0 -1 101
+ 0.872288 0 1 sctp 1500 ------- 0 0.0 1.0 -1 102
- 0.881904 0 1 sctp 1500 ------- 0 0.0 1.0 -1 77
r 0.882904 0 1 sctp 1500 ------- 0 0.0 1.0 -1 73
- 0.893904 0 1 sctp 1500 ------- 0 0.0 1.0 -1 78
r 0.894904 0 1 sctp 1500 ------- 0 0.0 1.0 -1 74
+ 0.894904 1 0 sctp 48 ------- 0 1.0 0.0 -1 103
- 0.894904 1 0 sctp 48 ------- 0 1.0 0.0 -1 103
r 0.896288 1 0 sctp 48 ------- 0 1.0 0.0 -1 99
+ 0.896288 0 1 sctp 1500 ------- 0 0.0 1.0 -1 104
+ 0.896288 0 1 sctp 1500 ------- 0 0.0 1.0 -1 105
+ 0.896288 0 1 sctp 1500 ------- 0 0.0 1.0 -1 106
- 0.905904 0 1 sctp 1500 ------- 0 0.0 1.0 -1 80
r 0.906904 0 1 sctp 1500 ------- 0 0.0 1.0 -1 76
- 0.917904 0 1 sctp 1500 ------- 0 0.0 1.0 -1 81
r 0.918904 0 1 sctp 1500 ------- 0 0.0 1.0 -1 77
+ 0.918904 1 0 sctp 48 ------- 0 1.0 0.0 -1 107
- 0.918904 1 0 sctp 48 ------- 0 1.0 0.0 -1 107
r 0.920288 1 0 sctp 48 ------- 0 1.0 0.0 -1 103
+ 0.920288 0 1 sctp 1500 ------- 0 0.0 1.0 -1 108
+ 0.920288 0 1 sctp 1500 ------- 0 0.0 1.0 -1 109
+ 0.920288 0 1 sctp 1500 ------- 0 0.0 1.0 -1 110
- 0.929904 0 1 sctp 1500 ------- 0 0.0 1.0 -1 82
r 0.930904 0 1 sctp 1500 ------- 0 0.0 1.0 -1 78
- 0.941904 0 1 sctp 1500 ------- 0 0.0 1.0 -1 84
r 0.942904 0 1 sctp 1500 ------- 0 0.0 1.0 -1 80
+ 0.942904 1 0 sctp 48 ------- 0 1.0 0.0 -1 111
- 0.942904 1 0 sctp 48 ------- 0 1.0 0.0 -1 111
r 0.944288 1 0 sctp 48 ------- 0 1.0 0.0 -1 107
+ 0.944288 0 1 sctp 1500 ------- 0 0.0 1.0 -1 112
+ 0.944288 0 1 sctp 1500 ------- 0 0.0 1.0 -1 113
+ 0.944288 0 1 sctp 1500 ------- 0 0.0 1.0 -1 114
- 0.953904 0 1 sctp 1500 ------- 0 0.0 1.0 -1 85
r 0.954904 0 1 sctp 1500 ------- 0 0.0 1.0 -1 81
- 0.965904 0 1 sctp 1500 ------- 0 0.0 1.0 -1 86
r 0.966904 0 1 sctp 1500 ------- 0 0.0 1.0 -1 82
+ 0.966904 1 0 sctp 48 ------- 0 1.0 0.0 -1 115
- 0.966904 1 0 sctp 48 ------- 0 1.0 0.0 -1 115
r 0.968288 1 0 sctp 48 ------- 0 1.0 0.0 -1 111
+ 0.968288 0 1 sctp 1500 ------- 0 0.0 1.0 -1 116
+ 0.968288 0 1 sctp 1500 ------- 0 0.0 1.0 -1 117
+ 0.968288 0 1 sctp 1500 ------- 0 0.0 1.0 -1 118
- 0.977904 0 1 sctp 1500 ------- 0 0.0 1.0 -1 88
r 0.978904 0 1 sctp 1500 ------- 0 0.0 1.0 -1 84
- 0.989904 0 1 sctp 1500 ------- 0 0.0 1.0 -1 89
r 0.990904 0 1 sctp 1500 ------- 0 0.0 1.0 -1 85
+ 0.990904 1 0 sctp 48 ------- 0 1.0 0.0 -1 119
- 0.990904 1 0 sctp 48 ------- 0 1.0 0.0 -1 119
r 0.992288 1 0 sctp 48 ------- 0 1.0 0.0 -1 115
+ 0.992288 0 1 sctp 1500 ------- 0 0.0 1.0 -1 120
+ 0.992288 0 1 sctp 1500 ------- 0 0.0 1.0 -1 121
+ 0.992288 0 1 sctp 1500 ------- 0 0.0 1.0 -1 122
- 1.001904 0 1 sctp 1500 ------- 0 0.0 1.0 -1 90
r 1.002904 0 1 sctp 1500 ------- 0 0.0 1.0 -1 86
- 1.013904 0 1 sctp 1500 ------- 0 0.0 1.0 -1 92
r 1.014904 0 1 sctp 1500 ------- 0 0.0 1.0 -1 88
+ 1.014904 1 0 sctp 48 ------- 0 1.0 0.0 -1 123
- 1.014904 1 0 sctp 48 ------- 0 1.0 0.0 -1 123
r 1.016288 1 0 sctp 48 ------- 0 1.0 0.0 -1 119
+ 1.016288 0 1 sctp 1500 ------- 0 0.0 1.0 -1 124
+ 1.016288 0 1 sctp 1500 ------- 0 0.0 1.0 -1 125
+ 1.016288 0 1 sctp 1500 ------- 0 0.0 1.0 -1 126
- 1.025904 0 1 sctp 1500 ------- 0 0.0 1.0 -1 93
r 1.026904 0 1 sctp 1500 ------- 0 0.0 1.0 -1 89
- 1.037904 0 1 sctp 1500 ------- 0 0.0 1.0 -1 94
r 1.038904 0 1 sctp 1500 ------- 0 0.0 1.0 -1 90
+ 1.038904 1 0 sctp 48 ------- 0 1.0 0.0 -1 127
- 1.038904 1 0 sctp 48 ------- 0 1.0 0.0 -1 127
r 1.040288 1 0 sctp 48 ------- 0 1.0 0.0 -1 123
+ 1.040288 0 1 sctp 1500 ------- 0 0.0 1.0 -1 128
+ 1.040288 0 1 sctp 1500 ------- 0 0.0 1.0 -1 129
+ 1.040288 0 1 sctp 1500 ------- 0 0.0 1.0 -1 130
- 1.049904 0 1 sctp 1500 ------- 0 0.0 1.0 -1 96
r 1.050904 0 1 sctp 1500 ------- 0 0.0 1.0 -1 92
- 1.061904 0 1 sctp 1500 ------- 0 0.0 1.0 -1 97
r 1.062904 0 1 sctp 1500 ------- 0 0.0 1.0 -1 93
+ 1.062904 1 0 sctp 48 ------- 0 1.0 0.0 -1 131
- 1.062904 1 0 sctp 48 ------- 0 1.0 0.0 -1 131
r 1.064288 1 0 sctp 48 ------- 0 1.0 0.0 -1 127
+ 1.064288 0 1 sctp 1500 ------- 0 0.0 1.0 -1 132
+ 1.064288 0 1 sctp 1500 ------- 0 0.0 1.0 -1 133
+ 1.064288 0 1 sctp 1500 ------- 0 0.0 1.0 -1 134
- 1.073904 0 1 sctp 1500 ------- 0 0.0 1.0 -1 98
r 1.074904 0 1 sctp 1500 ------- 0 0.0 1.0 -1 94
- 1.085904 0 1 sctp 1500 ------- 0 0.0 1.0 -1 100
r 1.086904 0 1 sctp 1500 ------- 0 0.0 1.0 -1 96
+ 1.086904 1 0 sctp 48 ------- 0 1.0 0.0 -1 135
- 1.086904 1 0 sctp 48 ------- 0 1.0 0.0 -1 135
r 1.088288 1 0 sctp 48 ------- 0 1.0 0.0 -1 131
+ 1.088288 0 1 sctp 1500 ------- 0 0.0 1.0 -1 136
+ 1.088288 0 1 sctp 1500 ------- 0 0.0 1.0 -1 137
+ 1.088288 0 1 sctp 1500 ------- 0 0.0 1.0 -1 138
- 1.097904 0 1 sctp 1500 ------- 0 0.0 1.0 -1 101
r 1.098904 0 1 sctp 1500 ------- 0 0.0 1.0 -1 97
- 1.109904 0 1 sctp 1500 ------- 0 0.0 1.0 -1 102
r 1.110904 0 1 sctp 1500 ------- 0 0.0 1.0 -1 98
+ 1.110904 1 0 sctp 48 ------- 0 1.0 0.0 -1 139
- 1.110904 1 0 sctp 48 ------- 0 1.0 0.0 -1 139
r 1.112288 1 0 sctp 48 ------- 0 1.0 0.0 -1 135
+ 1.112288 0 1 sctp 1500 ------- 0 0.0 1.0 -1 140
+ 1.112288 0 1 sctp 1500 ------- 0 0.0 1.0 -1 141
+ 1.112288 0 1 sctp 1500 ------- 0 0.0 1.0 -1 142
- 1.121904 0 1 sctp 1500 ------- 0 0.0 1.0 -1 104
r 1.122904 0 1 sctp 1500 ------- 0 0.0 1.0 -1 100
- 1.133904 0 1 sctp 1500 ------- 0 0.0 1.0 -1 105
r 1.134904 0 1 sctp 1500 ------- 0 0.0 1.0 -1 101
+ 1.134904 1 0 sctp 48 ------- 0 1.0 0.0 -1 143
- 1.134904 1 0 sctp 48 ------- 0 1.0 0.0 -1 143
r 1.136288 1 0 sctp 48 ------- 0 1.0 0.0 -1 139
+ 1.136288 0 1 sctp 1500 ------- 0 0.0 1.0 -1 144
+ 1.136288 0 1 sctp 1500 ------- 0 0.0 1.0 -1 145
+ 1.136288 0 1 sctp 1500 ------- 0 0.0 1.0 -1 146
- 1.145904 0 1 sctp 1500 ------- 0 0.0 1.0 -1 106
r 1.146904 0 1 sctp 1500 ------- 0 0.0 1.0 -1 102
- 1.157904 0 1 sctp 1500 ------- 0 0.0 1.0 -1 108
r 1.158904 0 1 sctp 1500 ------- 0 0.0 1.0 -1 104
+ 1.158904 1 0 sctp 48 ------- 0 1.0 0.0 -1 147
- 1.158904 1 0 sctp 48 ------- 0 1.0 0.0 -1 147
r 1.160288 1 0 sctp 48 ------- 0 1.0 0.0 -1 143
+ 1.160288 0 1 sctp 1500 ------- 0 0.0 1.0 -1 148
+ 1.160288 0 1 sctp 1500 ------- 0 0.0 1.0 -1 149
+ 1.160288 0 1 sctp 1500 ------- 0 0.0 1.0 -1 150
- 1.169904 0 1 sctp 1500 ------- 0 0.0 1.0 -1 109
r 1.170904 0 1 sctp 1500 ------- 0 0.0 1.0 -1 105
- 1.181904 0 1 sctp 1500 ------- 0 0.0 1.0 -1 110
r 1.182904 0 1 sctp 1500 ------- 0 0.0 1.0 -1 106
+ 1.182904 1 0 sctp 48 ------- 0 1.0 0.0 -1 151
- 1.182904 1 0 sctp 48 ------- 0 1.0 0.0 -1 151
r 1.184288 1 0 sctp 48 ------- 0 1.0 0.0 -1 147
+ 1.184288 0 1 sctp 1500 ------- 0 0.0 1.0 -1 152
+ 1.184288 0 1 sctp 1500 ------- 0 0.0 1.0 -1 153
+ 1.184288 0 1 sctp 1500 ------- 0 0.0 1.0 -1 154
- 1.193904 0 1 sctp 1500 ------- 0 0.0 1.0 -1 112
r 1.194904 0 1 sctp 1500 ------- 0 0.0 1.0 -1 108
- 1.205904 0 1 sctp 1500 ------- 0 0.0 1.0 -1 113
r 1.206904 0 1 sctp 1500 ------- 0 0.0 1.0 -1 109
+ 1.206904 1 0 sctp 48 ------- 0 1.0 0.0 -1 155
- 1.206904 1 0 sctp 48 ------- 0 1.0 0.0 -1 155
r 1.208288 1 0 sctp 48 ------- 0 1.0 0.0 -1 151
+ 1.208288 0 1 sctp 1500 ------- 0 0.0 1.0 -1 156
+ 1.208288 0 1 sctp 1500 ------- 0 0.0 1.0 -1 157
+ 1.208288 0 1 sctp 1500 ------- 0 0.0 1.0 -1 158
- 1.217904 0 1 sctp 1500 ------- 0 0.0 1.0 -1 114
r 1.218904 0 1 sctp 1500 ------- 0 0.0 1.0 -1 110
- 1.229904 0 1 sctp 1500 ------- 0 0.0 1.0 -1 116
r 1.230904 0 1 sctp 1500 ------- 0 0.0 1.0 -1 112
+ 1.230904 1 0 sctp 48 ------- 0 1.0 0.0 -1 159
- 1.230904 1 0 sctp 48 ------- 0 1.0 0.0 -1 159
r 1.232288 1 0 sctp 48 ------- 0 1.0 0.0 -1 155
+ 1.232288 0 1 sctp 1500 ------- 0 0.0 1.0 -1 160
+ 1.232288 0 1 sctp 1500 ------- 0 0.0 1.0 -1 161
+ 1.232288 0 1 sctp 1500 ------- 0 0.0 1.0 -1 162
- 1.241904 0 1 sctp 1500 ------- 0 0.0 1.0 -1 117
r 1.242904 0 1 sctp 1500 ------- 0 0.0 1.0 -1 113
- 1.253904 0 1 sctp 1500 ------- 0 0.0 1.0 -1 118
r 1.254904 0 1 sctp 1500 ------- 0 0.0 1.0 -1 114
+ 1.254904 1 0 sctp 48 ------- 0 1.0 0.0 -1 163
- 1.254904 1 0 sctp 48 ------- 0 1.0 0.0 -1 163
r 1.256288 1 0 sctp 48 ------- 0 1.0 0.0 -1 159
+ 1.256288 0 1 sctp 1500 ------- 0 0.0 1.0 -1 164
+ 1.256288 0 1 sctp 1500 ------- 0 0.0 1.0 -1 165
+ 1.256288 0 1 sctp 1500 ------- 0 0.0 1.0 -1 166
- 1.265904 0 1 sctp 1500 ------- 0 0.0 1.0 -1 120
r 1.266904 0 1 sctp 1500 ------- 0 0.0 1.0 -1 116
- 1.277904 0 1 sctp 1500 ------- 0 0.0 1.0 -1 121
r 1.278904 0 1 sctp 1500 ------- 0 0.0 1.0 -1 117
+ 1.278904 1 0 sctp 48 ------- 0 1.0 0.0 -1 167
- 1.278904 1 0 sctp 48 ------- 0 1.0 0.0 -1 167
r 1.280288 1 0 sctp 48 ------- 0 1.0 0.0 -1 163
+ 1.280288 0 1 sctp 1500 ------- 0 0.0 1.0 -1 168
+ 1.280288 0 1 sctp 1500 ------- 0 0.0 1.0 -1 169
+ 1.280288 0 1 sctp 1500 ------- 0 0.0 1.0 -1 170
- 1.289904 0 1 sctp 1500 ------- 0 0.0 1.0 -1 122
r 1.290904 0 1 sctp 1500 ------- 0 0.0 1.0 -1 118
- 1.301904 0 1 sctp 1500 ------- 0 0.0 1.0 -1 124
r 1.302904 0 1 sctp 1500 ------- 0 0.0 1.0 -1 120
+ 1.302904 1 0 sctp 48 ------- 0 1.0 0.0 -1 171
- 1.302904 1 0 sctp 48 ------- 0 1.0 0.0 -1 171
r 1.304288 1 0 sctp 48 ------- 0 1.0 0.0 -1 167
+ 1.304288 0 1 sctp 1500 ------- 0 0.0 1.0 -1 172
+ 1.304288 0 1 sctp 1500 ------- 0 0.0 1.0 -1 173
+ 1.304288 0 1 sctp 1500 ------- 0 0.0 1.0 -1 174
- 1.313904 0 1 sctp 1500 ------- 0 0.0 1.0 -1 125
r 1.314904 0 1 sctp 1500 ------- 0 0.0 1.0 -1 121
- 1.325904 0 1 sctp 1500 ------- 0 0.0 1.0 -1 126
r 1.326904 0 1 sctp 1500 ------- 0 0.0 1.0 -1 122
+ 1.326904 1 0 sctp 48 ------- 0 1.0 0.0 -1 175
- 1.326904 1 0 sctp 48 ------- 0 1.0 0.0 -1 175
r 1.328288 1 0 sctp 48 ------- 0 1.0 0.0 -1 171
+ 1.328288 0 1 sctp 1500 ------- 0 0.0 1.0 -1 176
+ 1.328288 0 1 sctp 1500 ------- 0 0.0 1.0 -1 177
+ 1.328288 0 1 sctp 1500 ------- 0 0.0 1.0 -1 178
- 1.337904 0 1 sctp 1500 ------- 0 0.0 1.0 -1 128
r 1.338904 0 1 sctp 1500 ------- 0 0.0 1.0 -1 124
- 1.349904 0 1 sctp 1500 ------- 0 0.0 1.0 -1 129
r 1.350904 0 1 sctp 1500 ------- 0 0.0 1.0 -1 125
+ 1.350904 1 0 sctp 48 ------- 0 1.0 0.0 -1 179
- 1.350904 1 0 sctp 48 ------- 0 1.0 0.0 -1 179
r 1.352288 1 0 sctp 48 ------- 0 1.0 0.0 -1 175
+ 1.352288 0 1 sctp 1500 ------- 0 0.0 1.0 -1 180
+ 1.352288 0 1 sctp 1500 ------- 0 0.0 1.0 -1 181
- 1.361904 0 1 sctp 1500 ------- 0 0.0 1.0 -1 130
r 1.362904 0 1 sctp 1500 ------- 0 0.0 1.0 -1 126
- 1.373904 0 1 sctp 1500 ------- 0 0.0 1.0 -1 132
r 1.374904 0 1 sctp 1500 ------- 0 0.0 1.0 -1 128
+ 1.374904 1 0 sctp 48 ------- 0 1.0 0.0 -1 182
- 1.374904 1 0 sctp 48 ------- 0 1.0 0.0 -1 182
r 1.376288 1 0 sctp 48 ------- 0 1.0 0.0 -1 179
+ 1.376288 0 1 sctp 1500 ------- 0 0.0 1.0 -1 183
+ 1.376288 0 1 sctp 1500 ------- 0 0.0 1.0 -1 184
- 1.385904 0 1 sctp 1500 ------- 0 0.0 1.0 -1 133
r 1.386904 0 1 sctp 1500 ------- 0 0.0 1.0 -1 129
- 1.397904 0 1 sctp 1500 ------- 0 0.0 1.0 -1 134
r 1.398904 0 1 sctp 1500 ------- 0 0.0 1.0 -1 130
+ 1.398904 1 0 sctp 48 ------- 0 1.0 0.0 -1 185
- 1.398904 1 0 sctp 48 ------- 0 1.0 0.0 -1 185
r 1.400288 1 0 sctp 48 ------- 0 1.0 0.0 -1 182
+ 1.400288 0 1 sctp 1500 ------- 0 0.0 1.0 -1 186
+ 1.400288 0 1 sctp 1500 ------- 0 0.0 1.0 -1 187
- 1.409904 0 1 sctp 1500 ------- 0 0.0 1.0 -1 136
r 1.410904 0 1 sctp 1500 ------- 0 0.0 1.0 -1 132
- 1.421904 0 1 sctp 1500 ------- 0 0.0 1.0 -1 137
r 1.422904 0 1 sctp 1500 ------- 0 0.0 1.0 -1 133
+ 1.422904 1 0 sctp 48 ------- 0 1.0 0.0 -1 188
- 1.422904 1 0 sctp 48 ------- 0 1.0 0.0 -1 188
r 1.424288 1 0 sctp 48 ------- 0 1.0 0.0 -1 185
+ 1.424288 0 1 sctp 1500 ------- 0 0.0 1.0 -1 189
+ 1.424288 0 1 sctp 1500 ------- 0 0.0 1.0 -1 190
- 1.433904 0 1 sctp 1500 ------- 0 0.0 1.0 -1 138
r 1.434904 0 1 sctp 1500 ------- 0 0.0 1.0 -1 134
- 1.445904 0 1 sctp 1500 ------- 0 0.0 1.0 -1 140
r 1.446904 0 1 sctp 1500 ------- 0 0.0 1.0 -1 136
+ 1.446904 1 0 sctp 48 ------- 0 1.0 0.0 -1 191
- 1.446904 1 0 sctp 48 ------- 0 1.0 0.0 -1 191
r 1.448288 1 0 sctp 48 ------- 0 1.0 0.0 -1 188
+ 1.448288 0 1 sctp 1500 ------- 0 0.0 1.0 -1 192
+ 1.448288 0 1 sctp 1500 ------- 0 0.0 1.0 -1 193
- 1.457904 0 1 sctp 1500 ------- 0 0.0 1.0 -1 141
r 1.458904 0 1 sctp 1500 ------- 0 0.0 1.0 -1 137
- 1.469904 0 1 sctp 1500 ------- 0 0.0 1.0 -1 142
r 1.470904 0 1 sctp 1500 ------- 0 0.0 1.0 -1 138
+ 1.470904 1 0 sctp 48 ------- 0 1.0 0.0 -1 194
- 1.470904 1 0 sctp 48 ------- 0 1.0 0.0 -1 194
r 1.472288 1 0 sctp 48 ------- 0 1.0 0.0 -1 191
+ 1.472288 0 1 sctp 1500 ------- 0 0.0 1.0 -1 195
+ 1.472288 0 1 sctp 1500 ------- 0 0.0 1.0 -1 196
- 1.481904 0 1 sctp 1500 ------- 0 0.0 1.0 -1 144
r 1.482904 0 1 sctp 1500 ------- 0 0.0 1.0 -1 140
- 1.493904 0 1 sctp 1500 ------- 0 0.0 1.0 -1 145
r 1.494904 0 1 sctp 1500 ------- 0 0.0 1.0 -1 141
+ 1.494904 1 0 sctp 48 ------- 0 1.0 0.0 -1 197
- 1.494904 1 0 sctp 48 ------- 0 1.0 0.0 -1 197
r 1.496288 1 0 sctp 48 ------- 0 1.0 0.0 -1 194
+ 1.496288 0 1 sctp 1500 ------- 0 0.0 1.0 -1 198
+ 1.496288 0 1 sctp 1500 ------- 0 0.0 1.0 -1 199
- 1.505904 0 1 sctp 1500 ------- 0 0.0 1.0 -1 146
r 1.506904 0 1 sctp 1500 ------- 0 0.0 1.0 -1 142
- 1.517904 0 1 sctp 1500 ------- 0 0.0 1.0 -1 148
r 1.518904 0 1 sctp 1500 ------- 0 0.0 1.0 -1 144
+ 1.518904 1 0 sctp 48 ------- 0 1.0 0.0 -1 200
- 1.518904 1 0 sctp 48 ------- 0 1.0 0.0 -1 200
r 1.520288 1 0 sctp 48 ------- 0 1.0 0.0 -1 197
+ 1.520288 0 1 sctp 1500 ------- 0 0.0 1.0 -1 201
+ 1.520288 0 1 sctp 1500 ------- 0 0.0 1.0 -1 202
- 1.529904 0 1 sctp 1500 ------- 0 0.0 1.0 -1 149
r 1.530904 0 1 sctp 1500 ------- 0 0.0 1.0 -1 145
- 1.541904 0 1 sctp 1500 ------- 0 0.0 1.0 -1 150
r 1.542904 0 1 sctp 1500 ------- 0 0.0 1.0 -1 146
+ 1.542904 1 0 sctp 48 ------- 0 1.0 0.0 -1 203
- 1.542904 1 0 sctp 48 ------- 0 1.0 0.0 -1 203
r 1.544288 1 0 sctp 48 ------- 0 1.0 0.0 -1 200
+ 1.544288 0 1 sctp 1500 ------- 0 0.0 1.0 -1 204
+ 1.544288 0 1 sctp 1500 ------- 0 0.0 1.0 -1 205
- 1.553904 0 1 sctp 1500 ------- 0 0.0 1.0 -1 152
r 1.554904 0 1 sctp 1500 ------- 0 0.0 1.0 -1 148
- 1.565904 0 1 sctp 1500 ------- 0 0.0 1.0 -1 153
r 1.566904 0 1 sctp 1500 ------- 0 0.0 1.0 -1 149
+ 1.566904 1 0 sctp 48 ------- 0 1.0 0.0 -1 206
- 1.566904 1 0 sctp 48 ------- 0 1.0 0.0 -1 206
r 1.568288 1 0 sctp 48 ------- 0 1.0 0.0 -1 203
+ 1.568288 0 1 sctp 1500 ------- 0 0.0 1.0 -1 207
+ 1.568288 0 1 sctp 1500 ------- 0 0.0 1.0 -1 208
- 1.577904 0 1 sctp 1500 ------- 0 0.0 1.0 -1 154
r 1.578904 0 1 sctp 1500 ------- 0 0.0 1.0 -1 150
- 1.589904 0 1 sctp 1500 ------- 0 0.0 1.0 -1 156
r 1.590904 0 1 sctp 1500 ------- 0 0.0 1.0 -1 152
+ 1.590904 1 0 sctp 48 ------- 0 1.0 0.0 -1 209
- 1.590904 1 0 sctp 48 ------- 0 1.0 0.0 -1 209
r 1.592288 1 0 sctp 48 ------- 0 1.0 0.0 -1 206
+ 1.592288 0 1 sctp 1500 ------- 0 0.0 1.0 -1 210
+ 1.592288 0 1 sctp 1500 ------- 0 0.0 1.0 -1 211
- 1.601904 0 1 sctp 1500 ------- 0 0.0 1.0 -1 157
r 1.602904 0 1 sctp 1500 ------- 0 0.0 1.0 -1 153
- 1.613904 0 1 sctp 1500 ------- 0 0.0 1.0 -1 158
r 1.614904 0 1 sctp 1500 ------- 0 0.0 1.0 -1 154
+ 1.614904 1 0 sctp 48 ------- 0 1.0 0.0 -1 212
- 1.614904 1 0 sctp 48 ------- 0 1.0 0.0 -1 212
r 1.616288 1 0 sctp 48 ------- 0 1.0 0.0 -1 209
+ 1.616288 0 1 sctp 1500 ------- 0 0.0 1.0 -1 213
+ 1.616288 0 1 sctp 1500 ------- 0 0.0 1.0 -1 214
- 1.625904 0 1 sctp 1500 ------- 0 0.0 1.0 -1 160
r 1.626904 0 1 sctp 1500 ------- 0 0.0 1.0 -1 156
- 1.637904 0 1 sctp 1500 ------- 0 0.0 1.0 -1 161
r 1.638904 0 1 sctp 1500 ------- 0 0.0 1.0 -1 157
+ 1.638904 1 0 sctp 48 ------- 0 1.0 0.0 -1 215
- 1.638904 1 0 sctp 48 ------- 0 1.0 0.0 -1 215
r 1.640288 1 0 sctp 48 ------- 0 1.0 0.0 -1 212
+ 1.640288 0 1 sctp 1500 ------- 0 0.0 1.0 -1 216
+ 1.640288 0 1 sctp 1500 ------- 0 0.0 1.0 -1 217
- 1.649904 0 1 sctp 1500 ------- 0 0.0 1.0 -1 162
r 1.650904 0 1 sctp 1500 ------- 0 0.0 1.0 -1 158
- 1.661904 0 1 sctp 1500 ------- 0 0.0 1.0 -1 164
r 1.662904 0 1 sctp 1500 ------- 0 0.0 1.0 -1 160
+ 1.662904 1 0 sctp 48 ------- 0 1.0 0.0 -1 218
- 1.662904 1 0 sctp 48 ------- 0 1.0 0.0 -1 218
r 1.664288 1 0 sctp 48 ------- 0 1.0 0.0 -1 215
+ 1.664288 0 1 sctp 1500 ------- 0 0.0 1.0 -1 219
+ 1.664288 0 1 sctp 1500 ------- 0 0.0 1.0 -1 220
- 1.673904 0 1 sctp 1500 ------- 0 0.0 1.0 -1 165
r 1.674904 0 1 sctp 1500 ------- 0 0.0 1.0 -1 161
- 1.685904 0 1 sctp 1500 ------- 0 0.0 1.0 -1 166
r 1.686904 0 1 sctp 1500 ------- 0 0.0 1.0 -1 162
+ 1.686904 1 0 sctp 48 ------- 0 1.0 0.0 -1 221
- 1.686904 1 0 sctp 48 ------- 0 1.0 0.0 -1 221
r 1.688288 1 0 sctp 48 ------- 0 1.0 0.0 -1 218
+ 1.688288 0 1 sctp 1500 ------- 0 0.0 1.0 -1 222
+ 1.688288 0 1 sctp 1500 ------- 0 0.0 1.0 -1 223
- 1.697904 0 1 sctp 1500 ------- 0 0.0 1.0 -1 168
r 1.698904 0 1 sctp 1500 ------- 0 0.0 1.0 -1 164
- 1.709904 0 1 sctp 1500 ------- 0 0.0 1.0 -1 169
r 1.710904 0 1 sctp 1500 ------- 0 0.0 1.0 -1 165
+ 1.710904 1 0 sctp 48 ------- 0 1.0 0.0 -1 224
- 1.710904 1 0 sctp 48 ------- 0 1.0 0.0 -1 224
r 1.712288 1 0 sctp 48 ------- 0 1.0 0.0 -1 221
+ 1.712288 0 1 sctp 1500 ------- 0 0.0 1.0 -1 225
+ 1.712288 0 1 sctp 1500 ------- 0 0.0 1.0 -1 226
- 1.721904 0 1 sctp 1500 ------- 0 0.0 1.0 -1 170
r 1.722904 0 1 sctp 1500 ------- 0 0.0 1.0 -1 166
- 1.733904 0 1 sctp 1500 ------- 0 0.0 1.0 -1 172
r 1.734904 0 1 sctp 1500 ------- 0 0.0 1.0 -1 168
+ 1.734904 1 0 sctp 48 ------- 0 1.0 0.0 -1 227
- 1.734904 1 0 sctp 48 ------- 0 1.0 0.0 -1 227
r 1.736288 1 0 sctp 48 ------- 0 1.0 0.0 -1 224
+ 1.736288 0 1 sctp 1500 ------- 0 0.0 1.0 -1 228
+ 1.736288 0 1 sctp 1500 ------- 0 0.0 1.0 -1 229
- 1.745904 0 1 sctp 1500 ------- 0 0.0 1.0 -1 173
r 1.746904 0 1 sctp 1500 ------- 0 0.0 1.0 -1 169
- 1.757904 0 1 sctp 1500 ------- 0 0.0 1.0 -1 174
r 1.758904 0 1 sctp 1500 ------- 0 0.0 1.0 -1 170
+ 1.758904 1 0 sctp 48 ------- 0 1.0 0.0 -1 230
- 1.758904 1 0 sctp 48 ------- 0 1.0 0.0 -1 230
r 1.760288 1 0 sctp 48 ------- 0 1.0 0.0 -1 227
+ 1.760288 0 1 sctp 1500 ------- 0 0.0 1.0 -1 231
+ 1.760288 0 1 sctp 1500 ------- 0 0.0 1.0 -1 232
- 1.769904 0 1 sctp 1500 ------- 0 0.0 1.0 -1 176
r 1.770904 0 1 sctp 1500 ------- 0 0.0 1.0 -1 172
- 1.781904 0 1 sctp 1500 ------- 0 0.0 1.0 -1 177
r 1.782904 0 1 sctp 1500 ------- 0 0.0 1.0 -1 173