V -t * -v 1.0a5 -a 0
A -t * -n 1 -p 0 -o 0xffffffff -c 31 -a 1
A -t * -h 1 -m 2147483647 -s 0
n -t * -a 0 -s 0 -S UP -v circle -c black -i black
n -t * -a 1 -s 1 -S UP -v circle -c black -i black
l -t * -s 0 -d 1 -S UP -r 1000000 -D 0.025000000000000001 -c black -o right
+ -t 0 -s 0 -d 1 -p sctp -e 56 -c 0 -i 2 -a 0 -x {0.0 1.0 -1 ------- null}
- -t 0 -s 0 -d 1 -p sctp -e 56 -c 0 -i 2 -a 0 -x {0.0 1.0 -1 ------- null}
h -t 0 -s 0 -d 1 -p sctp -e 56 -c 0 -i 2 -a 0 -x {0.0 1.0 -1 ------- null}
r -t 0.025448 -s 0 -d 1 -p sctp -e 56 -c 0 -i 2 -a 0 -x {0.0 1.0 -1 ------- null}
+ -t 0.025448 -s 1 -d 0 -p sctp -e 56 -c 0 -i 3 -a 0 -x {1.0 0.0 -1 ------- null}
- -t 0.025448 -s 1 -d 0 -p sctp -e 56 -c 0 -i 3 -a 0 -x {1.0 0.0 -1 ------- null}
h -t 0.025448 -s 1 -d 0 -p sctp -e 56 -c 0 -i 3 -a 0 -x {1.0 0.0 -1 ------- null}
r -t 0.050896 -s 1 -d 0 -p sctp -e 56 -c 0 -i 3 -a 0 -x {1.0 0.0 -1 ------- null}
+ -t 0.050896 -s 0 -d 1 -p sctp -e 36 -c 0 -i 4 -a 0 -x {0.0 1.0 -1 ------- null}
- -t 0.050896 -s 0 -d 1 -p sctp -e 36 -c 0 -i 4 -a 0 -x {0.0 1.0 -1 ------- null}
h -t 0.050896 -s 0 -d 1 -p sctp -e 36 -c 0 -i 4 -a 0 -x {0.0 1.0 -1 ------- null}
r -t 0.076184 -s 0 -d 1 -p sctp -e 36 -c 0 -i 4 -a 0 -x {0.0 1.0 -1 ------- null}
+ -t 0.076184 -s 1 -d 0 -p sctp -e 36 -c 0 -i 5 -a 0 -x {1.0 0.0 -1 ------- null}
- -t 0.076184 -s 1 -d 0 -p sctp -e 36 -c 0 -i 5 -a 0 -x {1.0 0.0 -1 ------- null}
h -t 0.076184 -s 1 -d 0 -p sctp -e 36 -c 0 -i 5 -a 0 -x {1.0 0.0 -1 ------- null}
r -t 0.101472 -s 1 -d 0 -p sctp -e 36 -c 0 -i 5 -a 0 -x {1.0 0.0 -1 ------- null}
+ -t 0.101472 -s 0 -d 1 -p sctp -e 56 -c 0 -i 6 -a 0 -x {0.0 1.0 -1 ------- null}
- -t 0.101472 -s 0 -d 1 -p sctp -e 56 -c 0 -i 6 -a 0 -x {0.0 1.0 -1 ------- null}
h -t 0.101472 -s 0 -d 1 -p sctp -e 56 -c 0 -i 6 -a 0 -x {0.0 1.0 -1 ------- null}
r -t 0.12692 -s 0 -d 1 -p sctp -e 56 -c 0 -i 6 -a 0 -x {0.0 1.0 -1 ------- null}
+ -t 0.12692 -s 1 -d 0 -p sctp -e 56 -c 0 -i 7 -a 0 -x {1.0 0.0 -1 ------- null}
- -t 0.12692 -s 1 -d 0 -p sctp -e 56 -c 0 -i 7 -a 0 -x {1.0 0.0 -1 ------- null}
h -t 0.12692 -s 1 -d 0 -p sctp -e 56 -c 0 -i 7 -a 0 -x {1.0 0.0 -1 ------- null}
r -t 0.152368 -s 1 -d 0 -p sctp -e 56 -c 0 -i 7 -a 0 -x {1.0 0.0 -1 ------- null}
+ -t 0.152368 -s 0 -d 1 -p sctp -e 1500 -c 0 -i 8 -a 0 -x {0.0 1.0 -1 ------- null}
- -t 0.152368 -s 0 -d 1 -p sctp -e 1500 -c 0 -i 8 -a 0 -x {0.0 1.0 -1 ------- null}
h -t 0.152368 -s 0 -d 1 -p sctp -e 1500 -c 0 -i 8 -a 0 -x {0.0 1.0 -1 ------- null}
+ -t 0.152368 -s 0 -d 1 -p sctp -e 1500 -c 0 -i 9 -a 0 -x {0.0 1.0 -1 ------- null}
- -t 0.164368 -s 0 -d 1 -p sctp -e 1500 -c 0 -i 9 -a 0 -x {0.0 1.0 -1 ------- null}
h -t 0.164368 -s 0 -d 1 -p sctp -e 1500 -c 0 -i 9 -a 0 -x {0.0 1.0 -1 ------- null}
r -t 0.189368 -s 0 -d 1 -p sctp -e 1500 -c 0 -i 8 -a 0 -x {0.0 1.0 -1 ------- null}
r -t 0.201368 -s 0 -d 1 -p sctp -e 1500 -c 0 -i 9 -a 0 -x {0.0 1.0 -1 ------- null}
+ -t 0.201368 -s 1 -d 0 -p sctp -e 48 -c 0 -i 10 -a 0 -x {1.0 0.0 -1 ------- null}
- -t 0.201368 -s 1 -d 0 -p sctp -e 48 -c 0 -i 10 -a 0 -x {1.0 0.0 -1 ------- null}
h -t 0.201368 -s 1 -d 0 -p sctp -e 48 -c 0 -i 10 -a 0 -x {1.0 0.0 -1 ------- null}
r -t 0.226752 -s 1 -d 0 -p sctp -e 48 -c 0 -i 10 -a 0 -x {1.0 0.0 -1 ------- null}
+ -t 0.226752 -s 0 -d 1 -p sctp -e 1500 -c 0 -i 11 -a 0 -x {0.0 1.0 -1 ------- null}
- -t 0.226752 -s 0 -d 1 -p sctp -e 1500 -c 0 -i 11 -a 0 -x {0.0 1.0 -1 ------- null}
h -t 0.226752 -s 0 -d 1 -p sctp -e 1500 -c 0 -i 11 -a 0 -x {0.0 1.0 -1 ------- null}
+ -t 0.226752 -s 0 -d 1 -p sctp -e 1500 -c 0 -i 12 -a 0 -x {0.0 1.0 -1 ------- null}
+ -t 0.226752 -s 0 -d 1 -p sctp -e 1500 -c 0 -i 13 -a 0 -x {0.0 1.0 -1 ------- null}
- -t 0.238752 -s 0 -d 1 -p sctp -e 1500 -c 0 -i 12 -a 0 -x {0.0 1.0 -1 ------- null}
h -t 0.238752 -s 0 -d 1 -p sctp -e 1500 -c 0 -i 12 -a 0 -x {0.0 1.0 -1 ------- null}
- -t 0.250752 -s 0 -d 1 -p sctp -e 1500 -c 0 -i 13 -a 0 -x {0.0 1.0 -1 ------- null}
h -t 0.250752 -s 0 -d 1 -p sctp -e 1500 -c 0 -i 13 -a 0 -x {0.0 1.0 -1 ------- null}
r -t 0.263752 -s 0 -d 1 -p sctp -e 1500 -c 0 -i 11 -a 0 -x {0.0 1.0 -1 ------- null}
r -t 0.275752 -s 0 -d 1 -p sctp -e 1500 -c 0 -i 12 -a 0 -x {0.0 1.0 -1 ------- null}
+ -t 0.275752 -s 1 -d 0 -p sctp -e 48 -c 0 -i 14 -a 0 -x {1.0 0.0 -1 ------- null}
- -t 0.275752 -s 1 -d 0 -p sctp -e 48 -c 0 -i 14 -a 0 -x {1.0 0.0 -1 ------- null}
h -t 0.275752 -s 1 -d 0 -p sctp -e 48 -c 0 -i 14 -a 0 -x {1.0 0.0 -1 ------- null}
r -t 0.287752 -s 0 -d 1 -p sctp -e 1500 -c 0 -i 13 -a 0 -x {0.0 1.0 -1 ------- null}
r -t 0.301136 -s 1 -d 0 -p sctp -e 48 -c 0 -i 14 -a 0 -x {1.0 0.0 -1 ------- null}
+ -t 0.301136 -s 0 -d 1 -p sctp -e 1500 -c 0 -i 15 -a 0 -x {0.0 1.0 -1 ------- null}
- -t 0.301136 -s 0 -d 1 -p sctp -e 1500 -c 0 -i 15 -a 0 -x {0.0 1.0 -1 ------- null}
h -t 0.301136 -s 0 -d 1 -p sctp -e 1500 -c 0 -i 15 -a 0 -x {0.0 1.0 -1 ------- null}
+ -t 0.301136 -s 0 -d 1 -p sctp -e 1500 -c 0 -i 16 -a 0 -x {0.0 1.0 -1 ------- null}
+ -t 0.301136 -s 0 -d 1 -p sctp -e 1500 -c 0 -i 17 -a 0 -x {0.0 1.0 -1 ------- null}
- -t 0.313136 -s 0 -d 1 -p sctp -e 1500 -c 0 -i 16 -a 0 -x {0.0 1.0 -1 ------- null}
h -t 0.313136 -s 0 -d 1 -p sctp -e 1500 -c 0 -i 16 -a 0 -x {0.0 1.0 -1 ------- null}
- -t 0.325136 -s 0 -d 1 -p sctp -e 1500 -c 0 -i 17 -a 0 -x {0.0 1.0 -1 ------- null}
h -t 0.325136 -s 0 -d 1 -p sctp -e 1500 -c 0 -i 17 -a 0 -x {0.0 1.0 -1 ------- null}
r -t 0.338136 -s 0 -d 1 -p sctp -e 1500 -c 0 -i 15 -a 0 -x {0.0 1.0 -1 ------- null}
+ -t 0.338136 -s 1 -d 0 -p sctp -e 48 -c 0 -i 18 -a 0 -x {1.0 0.0 -1 ------- null}
- -t 0.338136 -s 1 -d 0 -p sctp -e 48 -c 0 -i 18 -a 0 -x {1.0 0.0 -1 ------- null}
h -t 0.338136 -s 1 -d 0 -p sctp -e 48 -c 0 -i 18 -a 0 -x {1.0 0.0 -1 ------- null}
r -t 0.350136 -s 0 -d 1 -p sctp -e 1500 -c 0 -i 16 -a 0 -x {0.0 1.0 -1 ------- null}
r -t 0.362136 -s 0 -d 1 -p sctp -e 1500 -c 0 -i 17 -a 0 -x {0.0 1.0 -1 ------- null}
+ -t 0.362136 -s 1 -d 0 -p sctp -e 48 -c 0 -i 19 -a 0 -x {1.0 0.0 -1 ------- null}
- -t 0.362136 -s 1 -d 0 -p sctp -e 48 -c 0 -i 19 -a 0 -x {1.0 0.0 -1 ------- null}
h -t 0.362136 -s 1 -d 0 -p sctp -e 48 -c 0 -i 19 -a 0 -x {1.0 0.0 -1 ------- null}
r -t 0.36352 -s 1 -d 0 -p sctp -e 48 -c 0 -i 18 -a 0 -x {1.0 0.0 -1 ------- null}
+ -t 0.36352 -s 0 -d 1 -p sctp -e 1500 -c 0 -i 20 -a 0 -x {0.0 1.0 -1 ------- null}
- -t 0.36352 -s 0 -d 1 -p sctp -e 1500 -c 0 -i 20 -a 0 -x {0.0 1.0 -1 ------- null}
h -t 0.36352 -s 0 -d 1 -p sctp -e 1500 -c 0 -i 20 -a 0 -x {0.0 1.0 -1 ------- null}
+ -t 0.36352 -s 0 -d 1 -p sctp -e 1500 -c 0 -i 21 -a 0 -x {0.0 1.0 -1 ------- null}
+ -t 0.36352 -s 0 -d 1 -p sctp -e 1500 -c 0 -i 22 -a 0 -x {0.0 1.0 -1 ------- null}
- -t 0.37552 -s 0 -d 1 -p sctp -e 1500 -c 0 -i 21 -a 0 -x {0.0 1.0 -1 ------- null}
h -t 0.37552 -s 0 -d 1 -p sctp -e 1500 -c 0 -i 21 -a 0 -x {0.0 1.0 -1 ------- null}
r -t 0.38752 -s 1 -d 0 -p sctp -e 48 -c 0 -i 19 -a 0 -x {1.0 0.0 -1 ------- null}
+ -t 0.38752 -s 0 -d 1 -p sctp -e 1500 -c 0 -i 23 -a 0 -x {0.0 1.0 -1 ------- null}
+ -t 0.38752 -s 0 -d 1 -p sctp -e 1500 -c 0 -i 24 -a 0 -x {0.0 1.0 -1 ------- null}
+ -t 0.38752 -s 0 -d 1 -p sctp -e 1500 -c 0 -i 25 -a 0 -x {0.0 1.0 -1 ------- null}
- -t 0.38752 -s 0 -d 1 -p sctp -e 1500 -c 0 -i 22 -a 0 -x {0.0 1.0 -1 ------- null}
h -t 0.38752 -s 0 -d 1 -p sctp -e 1500 -c 0 -i 22 -a 0 -x {0.0 1.0 -1 ------- null}
- -t 0.39952 -s 0 -d 1 -p sctp -e 1500 -c 0 -i 23 -a 0 -x {0.0 1.0 -1 ------- null}
h -t 0.39952 -s 0 -d 1 -p sctp -e 1500 -c 0 -i 23 -a 0 -x {0.0 1.0 -1 ------- null}
r -t 0.40052 -s 0 -d 1 -p sctp -e 1500 -c 0 -i 20 -a 0 -x {0.0 1.0 -1 ------- null}
- -t 0.41152 -s 0 -d 1 -p sctp -e 1500 -c 0 -i 24 -a 0 -x {0.0 1.0 -1 ------- null}
h -t 0.41152 -s 0 -d 1 -p sctp -e 1500 -c 0 -i 24 -a 0 -x {0.0 1.0 -1 ------- null}
r -t 0.41252 -s 0 -d 1 -p sctp -e 1500 -c 0 -i 21 -a 0 -x {0.0 1.0 -1 ------- null}
+ -t 0.41252 -s 1 -d 0 -p sctp -e 48 -c 0 -i 26 -a 0 -x {1.0 0.0 -1 ------- null}
- -t 0.41252 -s 1 -d 0 -p sctp -e 48 -c 0 -i 26 -a 0 -x {1.0 0.0 -1 ------- null}
h -t 0.41252 -s 1 -d 0 -p sctp -e 48 -c 0 -i 26 -a 0 -x {1.0 0.0 -1 ------- null}
- -t 0.42352 -s 0 -d 1 -p sctp -e 1500 -c 0 -i 25 -a 0 -x {0.0 1.0 -1 ------- null}
h -t 0.42352 -s 0 -d 1 -p sctp -e 1500 -c 0 -i 25 -a 0 -x {0.0 1.0 -1 ------- null}
r -t 0.42452 -s 0 -d 1 -p sctp -e 1500 -c 0 -i 22 -a 0 -x {0.0 1.0 -1 ------- null}
r -t 0.43652 -s 0 -d 1 -p sctp -e 1500 -c 0 -i 23 -a 0 -x {0.0 1.0 -1 ------- null}
+ -t 0.43652 -s 1 -d 0 -p sctp -e 48 -c 0 -i 27 -a 0 -x {1.0 0.0 -1 ------- null}
- -t 0.43652 -s 1 -d 0 -p sctp -e 48 -c 0 -i 27 -a 0 -x {1.0 0.0 -1 ------- null}
h -t 0.43652 -s 1 -d 0 -p sctp -e 48 -c 0 -i 27 -a 0 -x {1.0 0.0 -1 ------- null}
r -t 0.437904 -s 1 -d 0 -p sctp -e 48 -c 0 -i 26 -a 0 -x {1.0 0.0 -1 ------- null}
+ -t 0.437904 -s 0 -d 1 -p sctp -e 1500 -c 0 -i 28 -a 0 -x {0.0 1.0 -1 ------- null}
- -t 0.437904 -s 0 -d 1 -p sctp -e 1500 -c 0 -i 28 -a 0 -x {0.0 1.0 -1 ------- null}
h -t 0.437904 -s 0 -d 1 -p sctp -e 1500 -c 0 -i 28 -a 0 -x {0.0 1.0 -1 ------- null}
+ -t 0.437904 -s 0 -d 1 -p sctp -e 1500 -c 0 -i 29 -a 0 -x {0.0 1.0 -1 ------- null}
+ -t 0.437904 -s 0 -d 1 -p sctp -e 1500 -c 0 -i 30 -a 0 -x {0.0 1.0 -1 ------- null}
r -t 0.44852 -s 0 -d 1 -p sctp -e 1500 -c 0 -i 24 -a 0 -x {0.0 1.0 -1 ------- null}
- -t 0.449904 -s 0 -d 1 -p sctp -e 1500 -c 0 -i 29 -a 0 -x {0.0 1.0 -1 ------- null}
h -t 0.449904 -s 0 -d 1 -p sctp -e 1500 -c 0 -i 29 -a 0 -x {0.0 1.0 -1 ------- null}
r -t 0.46052 -s 0 -d 1 -p sctp -e 1500 -c 0 -i 25 -a 0 -x {0.0 1.0 -1 ------- null}
+ -t 0.46052 -s 1 -d 0 -p sctp -e 48 -c 0 -i 31 -a 0 -x {1.0 0.0 -1 ------- null}
- -t 0.46052 -s 1 -d 0 -p sctp -e 48 -c 0 -i 31 -a 0 -x {1.0 0.0 -1 ------- null}
h -t 0.46052 -s 1 -d 0 -p sctp -e 48 -c 0 -i 31 -a 0 -x {1.0 0.0 -1 ------- null}
r -t 0.461904 -s 1 -d 0 -p sctp -e 48 -c 0 -i 27 -a 0 -x {1.0 0.0 -1 ------- null}
+ -t 0.461904 -s 0 -d 1 -p sctp -e 1500 -c 0 -i 32 -a 0 -x {0.0 1.0 -1 ------- null}
+ -t 0.461904 -s 0 -d 1 -p sctp -e 1500 -c 0 -i 33 -a 0 -x {0.0 1.0 -1 ------- null}
+ -t 0.461904 -s 0 -d 1 -p sctp -e 1500 -c 0 -i 34 -a 0 -x {0.0 1.0 -1 ------- null}
- -t 0.461904 -s 0 -d 1 -p sctp -e 1500 -c 0 -i 30 -a 0 -x {0.0 1.0 -1 ------- null}
h -t 0.461904 -s 0 -d 1 -p sctp -e 1500 -c 0 -i 30 -a 0 -x {0.0 1.0 -1 ------- null}
- -t 0.473904 -s 0 -d 1 -p sctp -e 1500 -c 0 -i 32 -a 0 -x {0.0 1.0 -1 ------- null}
h -t 0.473904 -s 0 -d 1 -p sctp -e 1500 -c 0 -i 32 -a 0 -x {0.0 1.0 -1 ------- null}
r -t 0.474904 -s 0 -d 1 -p sctp -e 1500 -c 0 -i 28 -a 0 -x {0.0 1.0 -1 ------- null}
r -t 0.485904 -s 1 -d 0 -p sctp -e 48 -c 0 -i 31 -a 0 -x {1.0 0.0 -1 ------- null}
+ -t 0.485904 -s 0 -d 1 -p sctp -e 1500 -c 0 -i 35 -a 0 -x {0.0 1.0 -1 ------- null}
+ -t 0.485904 -s 0 -d 1 -p sctp -e 1500 -c 0 -i 36 -a 0 -x {0.0 1.0 -1 ------- null}
+ -t 0.485904 -s 0 -d 1 -p sctp -e 1500 -c 0 -i 37 -a 0 -x {0.0 1.0 -1 ------- null}
- -t 0.485904 -s 0 -d 1 -p sctp -e 1500 -c 0 -i 33 -a 0 -x {0.0 1.0 -1 ------- null}
h -t 0.485904 -s 0 -d 1 -p sctp -e 1500 -c 0 -i 33 -a 0 -x {0.0 1.0 -1 ------- null}
r -t 0.486904 -s 0 -d 1 -p sctp -e 1500 -c 0 -i 29 -a 0 -x {0.0 1.0 -1 ------- null}
+ -t 0.486904 -s 1 -d 0 -p sctp -e 48 -c 0 -i 38 -a 0 -x {1.0 0.0 -1 ------- null}
- -t 0.486904 -s 1 -d 0 -p sctp -e 48 -c 0 -i 38 -a 0 -x {1.0 0.0 -1 ------- null}
h -t 0.486904 -s 1 -d 0 -p sctp -e 48 -c 0 -i 38 -a 0 -x {1.0 0.0 -1 ------- null}
- -t 0.497904 -s 0 -d 1 -p sctp -e 1500 -c 0 -i 34 -a 0 -x {0.0 1.0 -1 ------- null}
h -t 0.497904 -s 0 -d 1 -p sctp -e 1500 -c 0 -i 34 -a 0 -x {0.0 1.0 -1 ------- null}
r -t 0.498904 -s 0 -d 1 -p sctp -e 1500 -c 0 -i 30 -a 0 -x {0.0 1.0 -1 ------- null}
- -t 0.509904 -s 0 -d 1 -p sctp -e 1500 -c 0 -i 35 -a 0 -x {0.0 1.0 -1 ------- null}
h -t 0.509904 -s 0 -d 1 -p sctp -e 1500 -c 0 -i 35 -a 0 -x {0.0 1.0 -1 ------- null}
r -t 0.510904 -s 0 -d 1 -p sctp -e 1500 -c 0 -i 32 -a 0 -x {0.0 1.0 -1 ------- null}
+ -t 0.510904 -s 1 -d 0 -p sctp -e 48 -c 0 -i 39 -a 0 -x {1.0 0.0 -1 ------- null}
- -t 0.510904 -s 1 -d 0 -p sctp -e 48 -c 0 -i 39 -a 0 -x {1.0 0.0 -1 ------- null}
h -t 0.510904 -s 1 -d 0 -p sctp -e 48 -c 0 -i 39 -a 0 -x {1.0 0.0 -1 ------- null}
r -t 0.512288 -s 1 -d 0 -p sctp -e 48 -c 0 -i 38 -a 0 -x {1.0 0.0 -1 ------- null}
+ -t 0.512288 -s 0 -d 1 -p sctp -e 1500 -c 0 -i 40 -a 0 -x {0.0 1.0 -1 ------- null}
+ -t 0.512288 -s 0 -d 1 -p sctp -e 1500 -c 0 -i 41 -a 0 -x {0.0 1.0 -1 ------- null}
+ -t 0.512288 -s 0 -d 1 -p sctp -e 1500 -c 0 -i 42 -a 0 -x {0.0 1.0 -1 ------- null}
- -t 0.521904 -s 0 -d 1 -p sctp -e 1500 -c 0 -i 36 -a 0 -x {0.0 1.0 -1 ------- null}
h -t 0.521904 -s 0 -d 1 -p sctp -e 1500 -c 0 -i 36 -a 0 -x {0.0 1.0 -1 ------- null}
r -t 0.522904 -s 0 -d 1 -p sctp -e 1500 -c 0 -i 33 -a 0 -x {0.0 1.0 -1 ------- null}
- -t 0.533904 -s 0 -d 1 -p sctp -e 1500 -c 0 -i 37 -a 0 -x {0.0 1.0 -1 ------- null}
h -t 0.533904 -s 0 -d 1 -p sctp -e 1500 -c 0 -i 37 -a 0 -x {0.0 1.0 -1 ------- null}
r -t 0.534904 -s 0 -d 1 -p sctp -e 1500 -c 0 -i 34 -a 0 -x {0.0 1.0 -1 ------- null}
+ -t 0.534904 -s 1 -d 0 -p sctp -e 48 -c 0 -i 43 -a 0 -x {1.0 0.0 -1 ------- null}
- -t 0.534904 -s 1 -d 0 -p sctp -e 48 -c 0 -i 43 -a 0 -x {1.0 0.0 -1 ------- null}
h -t 0.534904 -s 1 -d 0 -p sctp -e 48 -c 0 -i 43 -a 0 -x {1.0 0.0 -1 ------- null}
r -t 0.536288 -s 1 -d 0 -p sctp -e 48 -c 0 -i 39 -a 0 -x {1.0 0.0 -1 ------- null}
+ -t 0.536288 -s 0 -d 1 -p sctp -e 1500 -c 0 -i 44 -a 0 -x {0.0 1.0 -1 ------- null}
+ -t 0.536288 -s 0 -d 1 -p sctp -e 1500 -c 0 -i 45 -a 0 -x {0.0 1.0 -1 ------- null}
+ -t 0.536288 -s 0 -d 1 -p sctp -e 1500 -c 0 -i 46 -a 0 -x {0.0 1.0 -1 ------- null}
- -t 0.545904 -s 0 -d 1 -p sctp -e 1500 -c 0 -i 40 -a 0 -x {0.0 1.0 -1 ------- null}
h -t 0.545904 -s 0 -d 1 -p sctp -e 1500 -c 0 -i 40 -a 0 -x {0.0 1.0 -1 ------- null}
r -t 0.546904 -s 0 -d 1 -p sctp -e 1500 -c 0 -i 35 -a 0 -x {0.0 1.0 -1 ------- null}
- -t 0.557904 -s 0 -d 1 -p sctp -e 1500 -c 0 -i 41 -a 0 -x {0.0 1.0 -1 ------- null}
h -t 0.557904 -s 0 -d 1 -p sctp -e 1500 -c 0 -i 41 -a 0 -x {0.0 1.0 -1 ------- null}
r -t 0.558904 -s 0 -d 1 -p sctp -e 1500 -c 0 -i 36 -a 0 -x {0.0 1.0 -1 ------- null}
+ -t 0.558904 -s 1 -d 0 -p sctp -e 48 -c 0 -i 47 -a 0 -x {1.0 0.0 -1 ------- null}
- -t 0.558904 -s 1 -d 0 -p sctp -e 48 -c 0 -i 47 -a 0 -x {1.0 0.0 -1 ------- null}
h -t 0.558904 -s 1 -d 0 -p sctp -e 48 -c 0 -i 47 -a 0 -x {1.0 0.0 -1 ------- null}
r -t 0.560288 -s 1 -d 0 -p sctp -e 48 -c 0 -i 43 -a 0 -x {1.0 0.0 -1 ------- null}
+ -t 0.560288 -s 0 -d 1 -p sctp -e 1500 -c 0 -i 48 -a 0 -x {0.0 1.0 -1 ------- null}
+ -t 0.560288 -s 0 -d 1 -p sctp -e 1500 -c 0 -i 49 -a 0 -x {0.0 1.0 -1 ------- null}
+ -t 0.560288 -s 0 -d 1 -p sctp -e 1500 -c 0 -i 50 -a 0 -x {0.0 1.0 -1 ------- null}
- -t 0.569904 -s 0 -d 1 -p sctp -e 1500 -c 0 -i 42 -a 0 -x {0.0 1.0 -1 ------- null}
h -t 0.569904 -s 0 -d 1 -p sctp -e 1500 -c 0 -i 42 -a 0 -x {0.0 1.0 -1 ------- null}
r -t 0.570904 -s 0 -d 1 -p sctp -e 1500 -c 0 -i 37 -a 0 -x {0.0 1.0 -1 ------- null}
- -t 0.581904 -s 0 -d 1 -p sctp -e 1500 -c 0 -i 44 -a 0 -x {0.0 1.0 -1 ------- null}
h -t 0.581904 -s 0 -d 1 -p sctp -e 1500 -c 0 -i 44 -a 0 -x {0.0 1.0 -1 ------- null}
r -t 0.582904 -s 0 -d 1 -p sctp -e 1500 -c 0 -i 40 -a 0 -x {0.0 1.0 -1 ------- null}
+ -t 0.582904 -s 1 -d 0 -p sctp -e 48 -c 0 -i 51 -a 0 -x {1.0 0.0 -1 ------- null}
- -t 0.582904 -s 1 -d 0 -p sctp -e 48 -c 0 -i 51 -a 0 -x {1.0 0.0 -1 ------- null}
h -t 0.582904 -s 1 -d 0 -p sctp -e 48 -c 0 -i 51 -a 0 -x {1.0 0.0 -1 ------- null}
r -t 0.584288 -s 1 -d 0 -p sctp -e 48 -c 0 -i 47 -a 0 -x {1.0 0.0 -1 ------- null}
+ -t 0.584288 -s 0 -d 1 -p sctp -e 1500 -c 0 -i 52 -a 0 -x {0.0 1.0 -1 ------- null}
+ -t 0.584288 -s 0 -d 1 -p sctp -e 1500 -c 0 -i 53 -a 0 -x {0.0 1.0 -1 ------- null}
+ -t 0.584288 -s 0 -d 1 -p sctp -e 1500 -c 0 -i 54 -a 0 -x {0.0 1.0 -1 ------- null}
- -t 0.593904 -s 0 -d 1 -p sctp -e 1500 -c 0 -i 45 -a 0 -x {0.0 1.0 -1 ------- null}
h -t 0.593904 -s 0 -d 1 -p sctp -e 1500 -c 0 -i 45 -a 0 -x {0.0 1.0 -1 ------- null}
r -t 0.594904 -s 0 -d 1 -p sctp -e 1500 -c 0 -i 41 -a 0 -x {0.0 1.0 -1 ------- null}
- -t 0.605904 -s 0 -d 1 -p sctp -e 1500 -c 0 -i 46 -a 0 -x {0.0 1.0 -1 ------- null}
h -t 0.605904 -s 0 -d 1 -p sctp -e 1500 -c 0 -i 46 -a 0 -x {0.0 1.0 -1 ------- null}
r -t 0.606904 -s 0 -d 1 -p sctp -e 1500 -c 0 -i 42 -a 0 -x {0.0 1.0 -1 ------- null}
+ -t 0.606904 -s 1 -d 0 -p sctp -e 48 -c 0 -i 55 -a 0 -x {1.0 0.0 -1 ------- null}
- -t 0.606904 -s 1 -d 0 -p sctp -e 48 -c 0 -i 55 -a 0 -x {1.0 0.0 -1 ------- null}
h -t 0.606904 -s 1 -d 0 -p sctp -e 48 -c 0 -i 55 -a 0 -x {1.0 0.0 -1 ------- null}
r -t 0.608288 -s 1 -d 0 -p sctp -e 48 -c 0 -i 51 -a 0 -x {1.0 0.0 -1 ------- null}
+ -t 0.608288 -s 0 -d 1 -p sctp -e 1500 -c 0 -i 56 -a 0 -x {0.0 1.0 -1 ------- null}
+ -t 0.608288 -s 0 -d 1 -p sctp -e 1500 -c 0 -i 57 -a 0 -x {0.0 1.0 -1 ------- null}
+ -t 0.608288 -s 0 -d 1 -p sctp -e 1500 -c 0 -i 58 -a 0 -x {0.0 1.0 -1 ------- null}
- -t 0.617904 -s 0 -d 1 -p sctp -e 1500 -c 0 -i 48 -a 0 -x {0.0 1.0 -1 ------- null}
h -t 0.617904 -s 0 -d 1 -p sctp -e 1500 -c 0 -i 48 -a 0 -x {0.0 1.0 -1 ------- null}
r -t 0.618904 -s 0 -d 1 -p sctp -e 1500 -c 0 -i 44 -a 0 -x {0.0 1.0 -1 ------- null}
- -t 0.629904 -s 0 -d 1 -p sctp -e 1500 -c 0 -i 49 -a 0 -x {0.0 1.0 -1 ------- null}
h -t 0.629904 -s 0 -d 1 -p sctp -e 1500 -c 0 -i 49 -a 0 -x {0.0 1.0 -1 ------- null}
r -t 0.630904 -s 0 -d 1 -p sctp -e 1500 -c 0 -i 45 -a 0 -x {0.0 1.0 -1 ------- null}
+ -t 0.630904 -s 1 -d 0 -p sctp -e 48 -c 0 -i 59 -a 0 -x {1.0 0.0 -1 ------- null}
- -t 0.630904 -s 1 -d 0 -p sctp -e 48 -c 0 -i 59 -a 0 -x {1.0 0.0 -1 ------- null}
h -t 0.630904 -s 1 -d 0 -p sctp -e 48 -c 0 -i 59 -a 0 -x {1.0 0.0 -1 ------- null}
r -t 0.632288 -s 1 -d 0 -p sctp -e 48 -c 0 -i 55 -a 0 -x {1.0 0.0 -1 ------- null}
+ -t 0.632288 -s 0 -d 1 -p sctp -e 1500 -c 0 -i 60 -a 0 -x {0.0 1.0 -1 ------- null}
+ -t 0.632288 -s 0 -d 1 -p sctp -e 1500 -c 0 -i 61 -a 0 -x {0.0 1.0 -1 ------- null}
+ -t 0.632288 -s 0 -d 1 -p sctp -e 1500 -c 0 -i 62 -a 0 -x {0.0 1.0 -1 ------- null}
- -t 0.641904 -s 0 -d 1 -p sctp -e 1500 -c 0 -i 50 -a 0 -x {0.0 1.0 -1 ------- null}
h -t 0.641904 -s 0 -d 1 -p sctp -e 1500 -c 0 -i 50 -a 0 -x {0.0 1.0 -1 ------- null}
r -t 0.642904 -s 0 -d 1 -p sctp -e 1500 -c 0 -i 46 -a 0 -x {0.0 1.0 -1 ------- null}
- -t 0.653904 -s 0 -d 1 -p sctp -e 1500 -c 0 -i 52 -a 0 -x {0.0 1.0 -1 ------- null}
h -t 0.653904 -s 0 -d 1 -p sctp -e 1500 -c 0 -i 52 -a 0 -x {0.0 1.0 -1 ------- null}
r -t 0.654904 -s 0 -d 1 -p sctp -e 1500 -c 0 -i 48 -a 0 -x {0.0 1.0 -1 ------- null}
+ -t 0.654904 -s 1 -d 0 -p sctp -e 48 -c 0 -i 63 -a 0 -x {1.0 0.0 -1 ------- null}
- -t 0.654904 -s 1 -d 0 -p sctp -e 48 -c 0 -i 63 -a 0 -x {1.0 0.0 -1 ------- null}
h -t 0.654904 -s 1 -d 0 -p sctp -e 48 -c 0 -i 63 -a 0 -x {1.0 0.0 -1 ------- null}
r -t 0.656288 -s 1 -d 0 -p sctp -e 48 -c 0 -i 59 -a 0 -x {1.0 0.0 -1 ------- null}
+ -t 0.656288 -s 0 -d 1 -p sctp -e 1500 -c 0 -i 64 -a 0 -x {0.0 1.0 -1 ------- null}
+ -t 0.656288 -s 0 -d 1 -p sctp -e 1500 -c 0 -i 65 -a 0 -x {0.0 1.0 -1 ------- null}
+ -t 0.656288 -s 0 -d 1 -p sctp -e 1500 -c 0 -i 66 -a 0 -x {0.0 1.0 -1 ------- null}
- -t 0.665904 -s 0 -d 1 -p sctp -e 1500 -c 0 -i 53 -a 0 -x {0.0 1.0 -1 ------- null}
h -t 0.665904 -s 0 -d 1 -p sctp -e 1500 -c 0 -i 53 -a 0 -x {0.0 1.0 -1 ------- null}
r -t 0.666904 -s 0 -d 1 -p sctp -e 1500 -c 0 -i 49 -a 0 -x {0.0 1.0 -1 ------- null}
- -t 0.677904 -s 0 -d 1 -p sctp -e 1500 -c 0 -i 54 -a 0 -x {0.0 1.0 -1 ------- null}
h -t 0.677904 -s 0 -d 1 -p sctp -e 1500 -c 0 -i 54 -a 0 -x {0.0 1.0 -1 ------- null}
r -t 0.678904 -s 0 -d 1 -p sctp -e 1500 -c 0 -i 50 -a 0 -x {0.0 1.0 -1 ------- null}
+ -t 0.678904 -s 1 -d 0 -p sctp -e 48 -c 0 -i 67 -a 0 -x {1.0 0.0 -1 ------- null}
- -t 0.678904 -s 1 -d 0 -p sctp -e 48 -c 0 -i 67 -a 0 -x {1.0 0.0 -1 ------- null}
h -t 0.678904 -s 1 -d 0 -p sctp -e 48 -c 0 -i 67 -a 0 -x {1.0 0.0 -1 ------- null}
r -t 0.680288 -s 1 -d 0 -p sctp -e 48 -c 0 -i 63 -a 0 -x {1.0 0.0 -1 ------- null}
+ -t 0.680288 -s 0 -d 1 -p sctp -e 1500 -c 0 -i 68 -a 0 -x {0.0 1.0 -1 ------- null}
+ -t 0.680288 -s 0 -d 1 -p sctp -e 1500 -c 0 -i 69 -a 0 -x {0.0 1.0 -1 ------- null}
+ -t 0.680288 -s 0 -d 1 -p sctp -e 1500 -c 0 -i 70 -a 0 -x {0.0 1.0 -1 ------- null}
- -t 0.689904 -s 0 -d 1 -p sctp -e 1500 -c 0 -i 56 -a 0 -x {0.0 1.0 -1 ------- null}
h -t 0.689904 -s 0 -d 1 -p sctp -e 1500 -c 0 -i 56 -a 0 -x {0.0 1.0 -1 ------- null}
r -t 0.690904 -s 0 -d 1 -p sctp -e 1500 -c 0 -i 52 -a 0 -x {0.0 1.0 -1 ------- null}
- -t 0.701904 -s 0 -d 1 -p sctp -e 1500 -c 0 -i 57 -a 0 -x {0.0 1.0 -1 ------- null}
h -t 0.701904 -s 0 -d 1 -p sctp -e 1500 -c 0 -i 57 -a 0 -x {0.0 1.0 -1 ------- null}
r -t 0.702904 -s 0 -d 1 -p sctp -e 1500 -c 0 -i 53 -a 0 -x {0.0 1.0 -1 ------- null}
+ -t 0.702904 -s 1 -d 0 -p sctp -e 48 -c 0 -i 71 -a 0 -x {1.0 0.0 -1 ------- null}
- -t 0.702904 -s 1 -d 0 -p sctp -e 48 -c 0 -i 71 -a 0 -x {1.0 0.0 -1 ------- null}
h -t 0.702904 -s 1 -d 0 -p sctp -e 48 -c 0 -i 71 -a 0 -x {1.0 0.0 -1 ------- null}
r -t 0.704288 -s 1 -d 0 -p sctp -e 48 -c 0 -i 67 -a 0 -x {1.0 0.0 -1 ------- null}
+ -t 0.704288 -s 0 -d 1 -p sctp -e 1500 -c 0 -i 72 -a 0 -x {0.0 1.0 -1 ------- null}
+ -t 0.704288 -s 0 -d 1 -p sctp -e 1500 -c 0 -i 73 -a 0 -x {0.0 1.0 -1 ------- null}
+ -t 0.704288 -s 0 -d 1 -p sctp -e 1500 -c 0 -i 74 -a 0 -x {0.0 1.0 -1 ------- null}
- -t 0.713904 -s 0 -d 1 -p sctp -e 1500 -c 0 -i 58 -a 0 -x {0.0 1.0 -1 ------- null}
h -t 0.713904 -s 0 -d 1 -p sctp -e 1500 -c 0 -i 58 -a 0 -x {0.0 1.0 -1 ------- null}
r -t 0.714904 -s 0 -d 1 -p sctp -e 1500 -c 0 -i 54 -a 0 -x {0.0 1.0 -1 ------- null}
- -t 0.725904 -s 0 -d 1 -p sctp -e 1500 -c 0 -i 60 -a 0 -x {0.0 1.0 -1 ------- null}
h -t 0.725904 -s 0 -d 1 -p sctp -e 1500 -c 0 -i 60 -a 0 -x {0.0 1.0 -1 ------- null}
r -t 0.726904 -s 0 -d 1 -p sctp -e 1500 -c 0 -i 56 -a 0 -x {0.0 1.0 -1 ------- null}
+ -t 0.726904 -s 1 -d 0 -p sctp -e 48 -c 0 -i 75 -a 0 -x {1.0 0.0 -1 ------- null}
- -t 0.726904 -s 1 -d 0 -p sctp -e 48 -c 0 -i 75 -a 0 -x {1.0 0.0 -1 ------- null}
h -t 0.726904 -s 1 -d 0 -p sctp -e 48 -c 0 -i 75 -a 0 -x {1.0 0.0 -1 ------- null}
r -t 0.728288 -s 1 -d 0 -p sctp -e 48 -c 0 -i 71 -a 0 -x {1.0 0.0 -1 ------- null}
+ -t 0.728288 -s 0 -d 1 -p sctp -e 1500 -c 0 -i 76 -a 0 -x {0.0 1.0 -1 ------- null}
+ -t 0.728288 -s 0 -d 1 -p sctp -e 1500 -c 0 -i 77 -a 0 -x {0.0 1.0 -1 ------- null}
+ -t 0.728288 -s 0 -d 1 -p sctp -e 1500 -c 0 -i 78 -a 0 -x {0.0 1.0 -1 ------- null}
- -t 0.737904 -s 0 -d 1 -p sctp -e 1500 -c 0 -i 61 -a 0 -x {0.0 1.0 -1 ------- null}
h -t 0.737904 -s 0 -d 1 -p sctp -e 1500 -c 0 -i 61 -a 0 -x {0.0 1.0 -1 ------- null}
r -t 0.738904 -s 0 -d 1 -p sctp -e 1500 -c 0 -i 57 -a 0 -x {0.0 1.0 -1 ------- null}
- -t 0.749904 -s 0 -d 1 -p sctp -e 1500 -c 0 -i 62 -a 0 -x {0.0 1.0 -1 ------- null}
h -t 0.749904 -s 0 -d 1 -p sctp -e 1500 -c 0 -i 62 -a 0 -x {0.0 1.0 -1 ------- null}
r -t 0.750904 -s 0 -d 1 -p sctp -e 1500 -c 0 -i 58 -a 0 -x {0.0 1.0 -1 ------- null}
+ -t 0.750904 -s 1 -d 0 -p sctp -e 48 -c 0 -i 79 -a 0 -x {1.0 0.0 -1 ------- null}
- -t 0.750904 -s 1 -d 0 -p sctp -e 48 -c 0 -i 79 -a 0 -x {1.0 0.0 -1 ------- null}
h -t 0.750904 -s 1 -d 0 -p sctp -e 48 -c 0 -i 79 -a 0 -x {1.0 0.0 -1 ------- null}
r -t 0.752288 -s 1 -d 0 -p sctp -e 48 -c 0 -i 75 -a 0 -x {1.0 0.0 -1 ------- null}
+ -t 0.752288 -s 0 -d 1 -p sctp -e 1500 -c 0 -i 80 -a 0 -x {0.0 1.0 -1 ------- null}
+ -t 0.752288 -s 0 -d 1 -p sctp -e 1500 -c 0 -i 81 -a 0 -x {0.0 1.0 -1 ------- null}
+ -t 0.752288 -s 0 -d 1 -p sctp -e 1500 -c 0 -i 82 -a 0 -x {0.0 1.0 -1 ------- null}
- -t 0.761904 -s 0 -d 1 -p sctp -e 1500 -c 0 -i 64 -a 0 -x {0.0 1.0 -1 ------- null}
h -t 0.761904 -s 0 -d 1 -p sctp -e 1500 -c 0 -i 64 -a 0 -x {0.0 1.0 -1 ------- null}
r -t 0.762904 -s 0 -d 1 -p sctp -e 1500 -c 0 -i 60 -a 0 -x {0.0 1.0 -1 ------- null}
- -t 0.773904 -s 0 -d 1 -p sctp -e 1500 -c 0 -i 65 -a 0 -x {0.0 1.0 -1 ------- null}
h -t 0.773904 -s 0 -d 1 -p sctp -e 1500 -c 0 -i 65 -a 0 -x {0.0 1.0 -1 ------- null}
r -t 0.774904 -s 0 -d 1 -p sctp -e 1500 -c 0 -i 61 -a 0 -x {0.0 1.0 -1 ------- null}
+ -t 0.774904 -s 1 -d 0 -p sctp -e 48 -c 0 -i 83 -a 0 -x {1.0 0.0 -1 ------- null}
- -t 0.774904 -s 1 -d 0 -p sctp -e 48 -c 0 -i 83 -a 0 -x {1.0 0.0 -1 ------- null}
h -t 0.774904 -s 1 -d 0 -p sctp -e 48 -c 0 -i 83 -a 0 -x {1.0 0.0 -1 ------- null}
r -t 0.776288 -s 1 -d 0 -p sctp -e 48 -c 0 -i 79 -a 0 -x {1.0 0.0 -1 ------- null}
+ -t 0.776288 -s 0 -d 1 -p sctp -e 1500 -c 0 -i 84 -a 0 -x {0.0 1.0 -1 ------- null}
+ -t 0.776288 -s 0 -d 1 -p sctp -e 1500 -c 0 -i 85 -a 0 -x {0.0 1.0 -1 ------- null}
+ -t 0.776288 -s 0 -d 1 -p sctp -e 1500 -c 0 -i 86 -a 0 -x {0.0 1.0 -1 ------- null}
- -t 0.785904 -s 0 -d 1 -p sctp -e 1500 -c 0 -i 66 -a 0 -x {0.0 1.0 -1 ------- null}
h -t 0.785904 -s 0 -d 1 -p sctp -e 1500 -c 0 -i 66 -a 0 -x {0.0 1.0 -1 ------- null}
r -t 0.786904 -s 0 -d 1 -p sctp -e 1500 -c 0 -i 62 -a 0 -x {0.0 1.0 -1 ------- null}
- -t 0.797904 -s 0 -d 1 -p sctp -e 1500 -c 0 -i 68 -a 0 -x {0.0 1.0 -1 ------- null}
h -t 0.797904 -s 0 -d 1 -p sctp -e 1500 -c 0 -i 68 -a 0 -x {0.0 1.0 -1 ------- null}
r -t 0.798904 -s 0 -d 1 -p sctp -e 1500 -c 0 -i 64 -a 0 -x {0.0 1.0 -1 ------- null}
+ -t 0.798904 -s 1 -d 0 -p sctp -e 48 -c 0 -i 87 -a 0 -x {1.0 0.0 -1 ------- null}
- -t 0.798904 -s 1 -d 0 -p sctp -e 48 -c 0 -i 87 -a 0 -x {1.0 0.0 -1 ------- null}
h -t 0.798904 -s 1 -d 0 -p sctp -e 48 -c 0 -i 87 -a 0 -x {1.0 0.0 -1 ------- null}
r -t 0.800288 -s 1 -d 0 -p sctp -e 48 -c 0 -i 83 -a 0 -x {1.0 0.0 -1 ------- null}
+ -t 0.800288 -s 0 -d 1 -p sctp -e 1500 -c 0 -i 88 -a 0 -x {0.0 1.0 -1 ------- null}
+ -t 0.800288 -s 0 -d 1 -p sctp -e 1500 -c 0 -i 89 -a 0 -x {0.0 1.0 -1 ------- null}
+ -t 0.800288 -s 0 -d 1 -p sctp -e 1500 -c 0 -i 90 -a 0 -x {0.0 1.0 -1 ------- null}
- -t 0.809904 -s 0 -d 1 -p sctp -e 1500 -c 0 -i 69 -a 0 -x {0.0 1.0 -1 ------- null}
h -t 0.809904 -s 0 -d 1 -p sctp -e 1500 -c 0 -i 69 -a 0 -x {0.0 1.0 -1 ------- null}
r -t 0.810904 -s 0 -d 1 -p sctp -e 1500 -c 0 -i 65 -a 0 -x {0.0 1.0 -1 ------- null}
- -t 0.821904 -s 0 -d 1 -p sctp -e 1500 -c 0 -i 70 -a 0 -x {0.0 1.0 -1 ------- null}
h -t 0.821904 -s 0 -d 1 -p sctp -e 1500 -c 0 -i 70 -a 0 -x {0.0 1.0 -1 ------- null}
r -t 0.822904 -s 0 -d 1 -p sctp -e 1500 -c 0 -i 66 -a 0 -x {0.0 1.0 -1 ------- null}
+ -t 0.822904 -s 1 -d 0 -p sctp -e 48 -c 0 -i 91 -a 0 -x {1.0 0.0 -1 ------- null}
- -t 0.822904 -s 1 -d 0 -p sctp -e 48 -c 0 -i 91 -a 0 -x {1.0 0.0 -1 ------- null}
h -t 0.822904 -s 1 -d 0 -p sctp -e 48 -c 0 -i 91 -a 0 -x {1.0 0.0 -1 ------- null}
r -t 0.824288 -s 1 -d 0 -p sctp -e 48 -c 0 -i 87 -a 0 -x {1.0 0.0 -1 ------- null}
+ -t 0.824288 -s 0 -d 1 -p sctp -e 1500 -c 0 -i 92 -a 0 -x {0.0 1.0 -1 ------- null}
+ -t 0.824288 -s 0 -d 1 -p sctp -e 1500 -c 0 -i 93 -a 0 -x {0.0 1.0 -1 ------- null}
+ -t 0.824288 -s 0 -d 1 -p sctp -e 1500 -c 0 -i 94 -a 0 -x {0.0 1.0 -1 ------- null}
- -t 0.833904 -s 0 -d 1 -p sctp -e 1500 -c 0 -i 72 -a 0 -x {0.0 1.0 -1 ------- null}
h -t 0.833904 -s 0 -d 1 -p sctp -e 1500 -c 0 -i 72 -a 0 -x {0.0 1.0 -1 ------- null}
r -t 0.834904 -s 0 -d 1 -p sctp -e 1500 -c 0 -i 68 -a 0 -x {0.0 1.0 -1 ------- null}
- -t 0.845904 -s 0 -d 1 -p sctp -e 1500 -c 0 -i 73 -a 0 -x {0.0 1.0 -1 ------- null}
h -t 0.845904 -s 0 -d 1 -p sctp -e 1500 -c 0 -i 73 -a 0 -x {0.0 1.0 -1 ------- null}
r -t 0.846904 -s 0 -d 1 -p sctp -e 1500 -c 0 -i 69 -a 0 -x {0.0 1.0 -1 ------- null}
+ -t 0.846904 -s 1 -d 0 -p sctp -e 48 -c 0 -i 95 -a 0 -x {1.0 0.0 -1 ------- null}
- -t 0.846904 -s 1 -d 0 -p sctp -e 48 -c 0 -i 95 -a 0 -x {1.0 0.0 -1 ------- null}
h -t 0.846904 -s 1 -d 0 -p sctp -e 48 -c 0 -i 95 -a 0 -x {1.0 0.0 -1 ------- null}
r -t 0.848288 -s 1 -d 0 -p sctp -e 48 -c 0 -i 91 -a 0 -x {1.0 0.0 -1 ------- null}
+ -t 0.848288 -s 0 -d 1 -p sctp -e 1500 -c 0 -i 96 -a 0 -x {0.0 1.0 -1 ------- null}
+ -t 0.848288 -s 0 -d 1 -p sctp -e 1500 -c 0 -i 97 -a 0 -x {0.0 1.0 -1 ------- null}
+ -t 0.848288 -s 0 -d 1 -p sctp -e 1500 -c 0 -i 98 -a 0 -x {0.0 1.0 -1 ------- null}
- -t 0.857904 -s 0 -d 1 -p sctp -e 1500 -c 0 -i 74 -a 0 -x {0.0 1.0 -1 ------- null}
h -t 0.857904 -s 0 -d 1 -p sctp -e 1500 -c 0 -i 74 -a 0 -x {0.0 1.0 -1 ------- null}
r -t 0.858904 -s 0 -d 1 -p sctp -e 1500 -c 0 -i 70 -a 0 -x {0.0 1.0 -1 ------- null}
- -t 0.869904 -s 0 -d 1 -p sctp -e 1500 -c 0 -i 76 -a 0 -x {0.0 1.0 -1 ------- null}
h -t 0.869904 -s 0 -d 1 -p sctp -e 1500 -c 0 -i 76 -a 0 -x {0.0 1.0 -1 ------- null}
r -t 0.870904 -s 0 -d 1 -p sctp -e 1500 -c 0 -i 72 -a 0 -x {0.0 1.0 -1 ------- null}
+ -t 0.870904 -s 1 -d 0 -p sctp -e 48 -c 0 -i 99 -a 0 -x {1.0 0.0 -1 ------- null}
- -t 0.870904 -s 1 -d 0 -p sctp -e 48 -c 0 -i 99 -a 0 -x {1.0 0.0 -1 ------- null}
h -t 0.870904 -s 1 -d 0 -p sctp -e 48 -c 0 -i 99 -a 0 -x {1.0 0.0 -1 ------- null}
r -t 0.872288 -s 1 -d 0 -p sctp -e 48 -c 0 -i 95 -a 0 -x {1.0 0.0 -1 ------- null}
+ -t 0.872288 -s 0 -d 1 -p sctp -e 1500 -c 0 -i 100 -a 0 -x {0.0 1.0 -1 ------- null}
+ -t 0.872288 -s 0 -d 1 -p sctp -e 1500 -c 0 -i 101 -a 0 -x {0.0 1.0 -1 ------- null}
+ -t 0.872288 -s 0 -d 1 -p sctp -e 1500 -c 0 -i 102 -a 0 -x {0.0 1.0 -1 ------- null}
- -t 0.881904 -s 0 -d 1 -p sctp -e 1500 -c 0 -i 77 -a 0 -x {0.0 1.0 -1 ------- null}
h -t 0.881904 -s 0 -d 1 -p sctp -e 1500 -c 0 -i 77 -a 0 -x {0.0 1.0 -1 ------- null}
r -t 0.882904 -s 0 -d 1 -p sctp -e 1500 -c 0 -i 73 -a 0 -x {0.0 1.0 -1 ------- null}
- -t 0.893904 -s 0 -d 1 -p sctp -e 1500 -c 0 -i 78 -a 0 -x {0.0 1.0 -1 ------- null}
h -t 0.893904 -s 0 -d 1 -p sctp -e 1500 -c 0 -i 78 -a 0 -x {0.0 1.0 -1 ------- null}
r -t 0.894904 -s 0 -d 1 -p sctp -e 1500 -c 0 -i 74 -a 0 -x {0.0 1.0 -1 ------- null}
+ -t 0.894904 -s 1 -d 0 -p sctp -e 48 -c 0 -i 103 -a 0 -x {1.0 0.0 -1 ------- null}
- -t 0.894904 -s 1 -d 0 -p sctp -e 48 -c 0 -i 103 -a 0 -x {1.0 0.0 -1 ------- null}
h -t 0.894904 -s 1 -d 0 -p sctp -e 48 -c 0 -i 103 -a 0 -x {1.0 0.0 -1 ------- null}
r -t 0.896288 -s 1 -d 0 -p sctp -e 48 -c 0 -i 99 -a 0 -x {1.0 0.0 -1 ------- null}
+ -t 0.896288 -s 0 -d 1 -p sctp -e 1500 -c 0 -i 104 -a 0 -x {0.0 1.0 -1 ------- null}
+ -t 0.896288 -s 0 -d 1 -p sctp -e 1500 -c 0 -i 105 -a 0 -x {0.0 1.0 -1 ------- null}
+ -t 0.896288 -s 0 -d 1 -p sctp -e 1500 -c 0 -i 106 -a 0 -x {0.0 1.0 -1 ------- null}