+ 0.680147 2 5 sctp 56 -------H 0 2.0 5.0 1 -1 9 65535 65535
- 0.680147 2 5 sctp 56 -------H 0 2.0 5.0 1 -1 9 65535 65535
r 0.725192 2 5 sctp 56 -------H 0 2.0 5.0 1 -1 9 65535 65535
+ 0.770237 2 5 sctp 1500 -------D 0 2.0 5.0 1 3 14 0 2
- 0.770237 2 5 sctp 1500 -------D 0 2.0 5.0 1 3 14 0 2
+ 0.770237 2 5 sctp 1500 -------D 0 2.0 5.0 1 4 15 0 3
- 0.771437 2 5 sctp 1500 -------D 0 2.0 5.0 1 4 15 0 3
r 0.816437 2 5 sctp 1500 -------D 0 2.0 5.0 1 3 14 0 2
r 0.817637 2 5 sctp 1500 -------D 0 2.0 5.0 1 4 15 0 3
+ 0.861478 2 5 sctp 1500 -------D 0 2.0 5.0 1 7 20 0 6
- 0.861478 2 5 sctp 1500 -------D 0 2.0 5.0 1 7 20 0 6
+ 0.861478 2 5 sctp 1500 -------D 0 2.0 5.0 1 8 21 0 7
+ 0.862675 2 5 sctp 1500 -------D 0 2.0 5.0 1 11 24 0 10
+ 0.862675 2 5 sctp 1500 -------D 0 2.0 5.0 1 12 25 0 11
- 0.862678 2 5 sctp 1500 -------D 0 2.0 5.0 1 8 21 0 7
- 0.863878 2 5 sctp 1500 -------D 0 2.0 5.0 1 11 24 0 10
- 0.865078 2 5 sctp 1500 -------D 0 2.0 5.0 1 12 25 0 11
r 0.907678 2 5 sctp 1500 -------D 0 2.0 5.0 1 7 20 0 6
r 0.908878 2 5 sctp 1500 -------D 0 2.0 5.0 1 8 21 0 7
r 0.910078 2 5 sctp 1500 -------D 0 2.0 5.0 1 11 24 0 10
r 0.911278 2 5 sctp 1500 -------D 0 2.0 5.0 1 12 25 0 11
+ 0.95272 2 5 sctp 1500 -------D 0 2.0 5.0 1 15 32 0 14
- 0.95272 2 5 sctp 1500 -------D 0 2.0 5.0 1 15 32 0 14
+ 0.95272 2 5 sctp 1500 -------D 0 2.0 5.0 1 16 33 0 15
+ 0.953917 2 5 sctp 1500 -------D 0 2.0 5.0 1 19 36 0 18
+ 0.953917 2 5 sctp 1500 -------D 0 2.0 5.0 1 20 37 0 19
- 0.95392 2 5 sctp 1500 -------D 0 2.0 5.0 1 16 33 0 15
+ 0.95512 2 5 sctp 1500 -------D 0 2.0 5.0 1 23 40 0 22
+ 0.95512 2 5 sctp 1500 -------D 0 2.0 5.0 1 24 41 0 23
- 0.95512 2 5 sctp 1500 -------D 0 2.0 5.0 1 19 36 0 18
+ 0.956317 2 5 sctp 1500 -------D 0 2.0 5.0 1 27 44 0 26
+ 0.956317 2 5 sctp 1500 -------D 0 2.0 5.0 1 28 45 0 27
- 0.95632 2 5 sctp 1500 -------D 0 2.0 5.0 1 20 37 0 19
- 0.95752 2 5 sctp 1500 -------D 0 2.0 5.0 1 23 40 0 22
- 0.95872 2 5 sctp 1500 -------D 0 2.0 5.0 1 24 41 0 23
- 0.95992 2 5 sctp 1500 -------D 0 2.0 5.0 1 27 44 0 26
- 0.96112 2 5 sctp 1500 -------D 0 2.0 5.0 1 28 45 0 27
r 0.99892 2 5 sctp 1500 -------D 0 2.0 5.0 1 15 32 0 14
r 1.00012 2 5 sctp 1500 -------D 0 2.0 5.0 1 16 33 0 15
r 1.00132 2 5 sctp 1500 -------D 0 2.0 5.0 1 19 36 0 18
r 1.00252 2 5 sctp 1500 -------D 0 2.0 5.0 1 20 37 0 19
r 1.00372 2 5 sctp 1500 -------D 0 2.0 5.0 1 23 40 0 22
r 1.00492 2 5 sctp 1500 -------D 0 2.0 5.0 1 24 41 0 23
r 1.00612 2 5 sctp 1500 -------D 0 2.0 5.0 1 27 44 0 26
r 1.00732 2 5 sctp 1500 -------D 0 2.0 5.0 1 28 45 0 27
+ 1.043962 2 5 sctp 1500 -------D 0 2.0 5.0 1 31 56 0 30
- 1.043962 2 5 sctp 1500 -------D 0 2.0 5.0 1 31 56 0 30
+ 1.043962 2 5 sctp 1500 -------D 0 2.0 5.0 1 32 57 0 31
+ 1.045158 2 5 sctp 1500 -------D 0 2.0 5.0 1 35 60 0 34
+ 1.045158 2 5 sctp 1500 -------D 0 2.0 5.0 1 36 61 0 35
- 1.045162 2 5 sctp 1500 -------D 0 2.0 5.0 1 32 57 0 31
+ 1.046362 2 5 sctp 1500 -------D 0 2.0 5.0 1 39 64 0 38
+ 1.046362 2 5 sctp 1500 -------D 0 2.0 5.0 1 40 65 0 39
- 1.046362 2 5 sctp 1500 -------D 0 2.0 5.0 1 35 60 0 34
+ 1.047558 2 5 sctp 1500 -------D 0 2.0 5.0 1 43 68 0 42
+ 1.047558 2 5 sctp 1500 -------D 0 2.0 5.0 1 44 69 0 43
- 1.047562 2 5 sctp 1500 -------D 0 2.0 5.0 1 36 61 0 35
+ 1.048762 2 5 sctp 1500 -------D 0 2.0 5.0 1 47 72 0 46
+ 1.048762 2 5 sctp 1500 -------D 0 2.0 5.0 1 48 73 0 47
- 1.048762 2 5 sctp 1500 -------D 0 2.0 5.0 1 39 64 0 38
+ 1.049958 2 5 sctp 1500 -------D 0 2.0 5.0 1 51 76 0 50
+ 1.049958 2 5 sctp 1500 -------D 0 2.0 5.0 1 52 77 0 51
- 1.049962 2 5 sctp 1500 -------D 0 2.0 5.0 1 40 65 0 39
+ 1.051162 2 5 sctp 1500 -------D 0 2.0 5.0 1 55 80 0 54
+ 1.051162 2 5 sctp 1500 -------D 0 2.0 5.0 1 56 81 0 55
- 1.051162 2 5 sctp 1500 -------D 0 2.0 5.0 1 43 68 0 42
+ 1.052358 2 5 sctp 1500 -------D 0 2.0 5.0 1 59 84 0 58
+ 1.052358 2 5 sctp 1500 -------D 0 2.0 5.0 1 60 85 0 59
- 1.052362 2 5 sctp 1500 -------D 0 2.0 5.0 1 44 69 0 43
- 1.053562 2 5 sctp 1500 -------D 0 2.0 5.0 1 47 72 0 46
- 1.054762 2 5 sctp 1500 -------D 0 2.0 5.0 1 48 73 0 47
- 1.055962 2 5 sctp 1500 -------D 0 2.0 5.0 1 51 76 0 50
- 1.057162 2 5 sctp 1500 -------D 0 2.0 5.0 1 52 77 0 51
- 1.058362 2 5 sctp 1500 -------D 0 2.0 5.0 1 55 80 0 54
- 1.059562 2 5 sctp 1500 -------D 0 2.0 5.0 1 56 81 0 55
- 1.060762 2 5 sctp 1500 -------D 0 2.0 5.0 1 59 84 0 58
- 1.061962 2 5 sctp 1500 -------D 0 2.0 5.0 1 60 85 0 59
r 1.090162 2 5 sctp 1500 -------D 0 2.0 5.0 1 31 56 0 30
r 1.091362 2 5 sctp 1500 -------D 0 2.0 5.0 1 32 57 0 31
r 1.092562 2 5 sctp 1500 -------D 0 2.0 5.0 1 35 60 0 34
r 1.093762 2 5 sctp 1500 -------D 0 2.0 5.0 1 36 61 0 35
r 1.094962 2 5 sctp 1500 -------D 0 2.0 5.0 1 39 64 0 38
r 1.096162 2 5 sctp 1500 -------D 0 2.0 5.0 1 40 65 0 39
r 1.097362 2 5 sctp 1500 -------D 0 2.0 5.0 1 43 68 0 42
r 1.098562 2 5 sctp 1500 -------D 0 2.0 5.0 1 44 69 0 43
r 1.099762 2 5 sctp 1500 -------D 0 2.0 5.0 1 47 72 0 46
r 1.100962 2 5 sctp 1500 -------D 0 2.0 5.0 1 48 73 0 47
r 1.102162 2 5 sctp 1500 -------D 0 2.0 5.0 1 51 76 0 50
r 1.103362 2 5 sctp 1500 -------D 0 2.0 5.0 1 52 77 0 51
r 1.104562 2 5 sctp 1500 -------D 0 2.0 5.0 1 55 80 0 54
r 1.105762 2 5 sctp 1500 -------D 0 2.0 5.0 1 56 81 0 55
r 1.106962 2 5 sctp 1500 -------D 0 2.0 5.0 1 59 84 0 58
r 1.108162 2 5 sctp 1500 -------D 0 2.0 5.0 1 60 85 0 59
+ 1.135203 2 5 sctp 1500 -------D 0 2.0 5.0 1 63 104 0 62
- 1.135203 2 5 sctp 1500 -------D 0 2.0 5.0 1 63 104 0 62
+ 1.135203 2 5 sctp 1500 -------D 0 2.0 5.0 1 64 105 0 63
+ 1.1364 2 5 sctp 1500 -------D 0 2.0 5.0 1 67 108 0 66
+ 1.1364 2 5 sctp 1500 -------D 0 2.0 5.0 1 68 109 0 67
- 1.136403 2 5 sctp 1500 -------D 0 2.0 5.0 1 64 105 0 63
+ 1.137603 2 5 sctp 1500 -------D 0 2.0 5.0 1 71 112 0 70
+ 1.137603 2 5 sctp 1500 -------D 0 2.0 5.0 1 72 113 0 71
- 1.137603 2 5 sctp 1500 -------D 0 2.0 5.0 1 67 108 0 66
+ 1.1388 2 5 sctp 1500 -------D 0 2.0 5.0 1 75 116 0 74
+ 1.1388 2 5 sctp 1500 -------D 0 2.0 5.0 1 76 117 0 75
- 1.138803 2 5 sctp 1500 -------D 0 2.0 5.0 1 68 109 0 67
+ 1.140003 2 5 sctp 1500 -------D 0 2.0 5.0 1 79 120 0 78
+ 1.140003 2 5 sctp 1500 -------D 0 2.0 5.0 1 80 121 0 79
- 1.140003 2 5 sctp 1500 -------D 0 2.0 5.0 1 71 112 0 70
+ 1.1412 2 5 sctp 1500 -------D 0 2.0 5.0 1 83 124 0 82
+ 1.1412 2 5 sctp 1500 -------D 0 2.0 5.0 1 84 125 0 83
- 1.141203 2 5 sctp 1500 -------D 0 2.0 5.0 1 72 113 0 71
- 1.142403 2 5 sctp 1500 -------D 0 2.0 5.0 1 75 116 0 74
+ 1.1436 2 5 sctp 1500 -------D 0 2.0 5.0 1 86 127 0 85
+ 1.1436 2 5 sctp 1500 -------D 0 2.0 5.0 1 87 128 0 86
+ 1.1436 2 5 sctp 1500 -------D 0 2.0 5.0 1 88 129 0 87
- 1.143603 2 5 sctp 1500 -------D 0 2.0 5.0 1 76 117 0 75
- 1.144803 2 5 sctp 1500 -------D 0 2.0 5.0 1 79 120 0 78
+ 1.146 2 5 sctp 1500 -------D 0 2.0 5.0 1 90 131 0 89
+ 1.146 2 5 sctp 1500 -------D 0 2.0 5.0 1 91 132 0 90
+ 1.146 2 5 sctp 1500 -------D 0 2.0 5.0 1 92 133 0 91
- 1.146003 2 5 sctp 1500 -------D 0 2.0 5.0 1 80 121 0 79
- 1.147203 2 5 sctp 1500 -------D 0 2.0 5.0 1 83 124 0 82
+ 1.1484 2 5 sctp 1500 -------D 0 2.0 5.0 1 94 135 0 93
+ 1.1484 2 5 sctp 1500 -------D 0 2.0 5.0 1 95 136 0 94
+ 1.1484 2 5 sctp 1500 -------D 0 2.0 5.0 1 96 137 0 95
- 1.148403 2 5 sctp 1500 -------D 0 2.0 5.0 1 84 125 0 83
- 1.149603 2 5 sctp 1500 -------D 0 2.0 5.0 1 86 127 0 85
+ 1.1508 2 5 sctp 1500 -------D 0 2.0 5.0 1 98 139 0 97
+ 1.1508 2 5 sctp 1500 -------D 0 2.0 5.0 1 99 140 0 98
+ 1.1508 2 5 sctp 1500 -------D 0 2.0 5.0 1 100 141 0 99
- 1.150803 2 5 sctp 1500 -------D 0 2.0 5.0 1 87 128 0 86
- 1.152003 2 5 sctp 1500 -------D 0 2.0 5.0 1 88 129 0 87
+ 1.1532 2 5 sctp 1500 -------D 0 2.0 5.0 1 102 143 0 101
+ 1.1532 2 5 sctp 1500 -------D 0 2.0 5.0 1 103 144 0 102
+ 1.1532 2 5 sctp 1500 -------D 0 2.0 5.0 1 104 145 0 103
- 1.153203 2 5 sctp 1500 -------D 0 2.0 5.0 1 90 131 0 89
- 1.154403 2 5 sctp 1500 -------D 0 2.0 5.0 1 91 132 0 90
- 1.155603 2 5 sctp 1500 -------D 0 2.0 5.0 1 92 133 0 91
- 1.156803 2 5 sctp 1500 -------D 0 2.0 5.0 1 94 135 0 93
- 1.158003 2 5 sctp 1500 -------D 0 2.0 5.0 1 95 136 0 94
- 1.159203 2 5 sctp 1500 -------D 0 2.0 5.0 1 96 137 0 95
- 1.160403 2 5 sctp 1500 -------D 0 2.0 5.0 1 98 139 0 97
- 1.161603 2 5 sctp 1500 -------D 0 2.0 5.0 1 99 140 0 98
- 1.162803 2 5 sctp 1500 -------D 0 2.0 5.0 1 100 141 0 99
- 1.164003 2 5 sctp 1500 -------D 0 2.0 5.0 1 102 143 0 101
- 1.165203 2 5 sctp 1500 -------D 0 2.0 5.0 1 103 144 0 102
- 1.166403 2 5 sctp 1500 -------D 0 2.0 5.0 1 104 145 0 103
r 1.181403 2 5 sctp 1500 -------D 0 2.0 5.0 1 63 104 0 62
r 1.182603 2 5 sctp 1500 -------D 0 2.0 5.0 1 64 105 0 63
r 1.183803 2 5 sctp 1500 -------D 0 2.0 5.0 1 67 108 0 66
r 1.185003 2 5 sctp 1500 -------D 0 2.0 5.0 1 68 109 0 67
r 1.186203 2 5 sctp 1500 -------D 0 2.0 5.0 1 71 112 0 70
r 1.187403 2 5 sctp 1500 -------D 0 2.0 5.0 1 72 113 0 71
r 1.188603 2 5 sctp 1500 -------D 0 2.0 5.0 1 75 116 0 74
r 1.189803 2 5 sctp 1500 -------D 0 2.0 5.0 1 76 117 0 75
r 1.191003 2 5 sctp 1500 -------D 0 2.0 5.0 1 79 120 0 78
r 1.192203 2 5 sctp 1500 -------D 0 2.0 5.0 1 80 121 0 79
r 1.193403 2 5 sctp 1500 -------D 0 2.0 5.0 1 83 124 0 82
r 1.194603 2 5 sctp 1500 -------D 0 2.0 5.0 1 84 125 0 83
r 1.195803 2 5 sctp 1500 -------D 0 2.0 5.0 1 86 127 0 85
r 1.197003 2 5 sctp 1500 -------D 0 2.0 5.0 1 87 128 0 86
r 1.198203 2 5 sctp 1500 -------D 0 2.0 5.0 1 88 129 0 87
r 1.199403 2 5 sctp 1500 -------D 0 2.0 5.0 1 90 131 0 89
r 1.200603 2 5 sctp 1500 -------D 0 2.0 5.0 1 91 132 0 90
r 1.201803 2 5 sctp 1500 -------D 0 2.0 5.0 1 92 133 0 91
r 1.203003 2 5 sctp 1500 -------D 0 2.0 5.0 1 94 135 0 93
r 1.204203 2 5 sctp 1500 -------D 0 2.0 5.0 1 95 136 0 94
r 1.205403 2 5 sctp 1500 -------D 0 2.0 5.0 1 96 137 0 95
r 1.206603 2 5 sctp 1500 -------D 0 2.0 5.0 1 98 139 0 97
r 1.207803 2 5 sctp 1500 -------D 0 2.0 5.0 1 99 140 0 98
r 1.209003 2 5 sctp 1500 -------D 0 2.0 5.0 1 100 141 0 99
r 1.210203 2 5 sctp 1500 -------D 0 2.0 5.0 1 102 143 0 101
r 1.211403 2 5 sctp 1500 -------D 0 2.0 5.0 1 103 144 0 102
r 1.212603 2 5 sctp 1500 -------D 0 2.0 5.0 1 104 145 0 103
+ 1.227642 2 5 sctp 1500 -------D 0 2.0 5.0 1 106 169 0 105
- 1.227642 2 5 sctp 1500 -------D 0 2.0 5.0 1 106 169 0 105
+ 1.227642 2 5 sctp 1500 -------D 0 2.0 5.0 1 107 170 0 106
+ 1.227642 2 5 sctp 1500 -------D 0 2.0 5.0 1 108 171 0 107
- 1.228842 2 5 sctp 1500 -------D 0 2.0 5.0 1 107 170 0 106
+ 1.230042 2 5 sctp 1500 -------D 0 2.0 5.0 1 110 173 0 109
+ 1.230042 2 5 sctp 1500 -------D 0 2.0 5.0 1 111 174 0 110
+ 1.230042 2 5 sctp 1500 -------D 0 2.0 5.0 1 112 175 0 111
- 1.230042 2 5 sctp 1500 -------D 0 2.0 5.0 1 108 171 0 107
- 1.231242 2 5 sctp 1500 -------D 0 2.0 5.0 1 110 173 0 109
+ 1.232442 2 5 sctp 1500 -------D 0 2.0 5.0 1 114 177 0 113
+ 1.232442 2 5 sctp 1500 -------D 0 2.0 5.0 1 115 178 0 114
+ 1.232442 2 5 sctp 1500 -------D 0 2.0 5.0 1 116 179 0 115
- 1.232442 2 5 sctp 1500 -------D 0 2.0 5.0 1 111 174 0 110
- 1.233642 2 5 sctp 1500 -------D 0 2.0 5.0 1 112 175 0 111
+ 1.234842 2 5 sctp 1500 -------D 0 2.0 5.0 1 118 181 0 117
+ 1.234842 2 5 sctp 1500 -------D 0 2.0 5.0 1 119 182 0 118
+ 1.234842 2 5 sctp 1500 -------D 0 2.0 5.0 1 120 183 0 119
- 1.234842 2 5 sctp 1500 -------D 0 2.0 5.0 1 114 177 0 113
- 1.236042 2 5 sctp 1500 -------D 0 2.0 5.0 1 115 178 0 114
+ 1.237242 2 5 sctp 1500 -------D 0 2.0 5.0 1 122 185 0 121
+ 1.237242 2 5 sctp 1500 -------D 0 2.0 5.0 1 123 186 0 122
+ 1.237242 2 5 sctp 1500 -------D 0 2.0 5.0 1 124 187 0 123
- 1.237242 2 5 sctp 1500 -------D 0 2.0 5.0 1 116 179 0 115
- 1.238442 2 5 sctp 1500 -------D 0 2.0 5.0 1 118 181 0 117
+ 1.239642 2 5 sctp 1500 -------D 0 2.0 5.0 1 126 189 0 125
+ 1.239642 2 5 sctp 1500 -------D 0 2.0 5.0 1 127 190 0 126
+ 1.239642 2 5 sctp 1500 -------D 0 2.0 5.0 1 128 191 0 127
- 1.239642 2 5 sctp 1500 -------D 0 2.0 5.0 1 119 182 0 118
- 1.240842 2 5 sctp 1500 -------D 0 2.0 5.0 1 120 183 0 119
- 1.242042 2 5 sctp 1500 -------D 0 2.0 5.0 1 122 185 0 121
+ 1.242045 2 5 sctp 1500 -------D 0 2.0 5.0 1 131 194 0 130
- 1.243242 2 5 sctp 1500 -------D 0 2.0 5.0 1 123 186 0 122
- 1.244442 2 5 sctp 1500 -------D 0 2.0 5.0 1 124 187 0 123
+ 1.244448 2 5 sctp 1500 -------D 0 2.0 5.0 1 134 197 0 133
- 1.245642 2 5 sctp 1500 -------D 0 2.0 5.0 1 126 189 0 125
- 1.246842 2 5 sctp 1500 -------D 0 2.0 5.0 1 127 190 0 126
- 1.248042 2 5 sctp 1500 -------D 0 2.0 5.0 1 128 191 0 127
+ 1.248048 2 5 sctp 1500 -------D 0 2.0 5.0 1 136 199 0 135
+ 1.248048 2 5 sctp 1500 -------D 0 2.0 5.0 1 137 200 0 136
+ 1.248048 2 5 sctp 1500 -------D 0 2.0 5.0 1 138 201 0 137
- 1.249242 2 5 sctp 1500 -------D 0 2.0 5.0 1 131 194 0 130
- 1.250442 2 5 sctp 1500 -------D 0 2.0 5.0 1 134 197 0 133
- 1.251642 2 5 sctp 1500 -------D 0 2.0 5.0 1 136 199 0 135
- 1.252842 2 5 sctp 1500 -------D 0 2.0 5.0 1 137 200 0 136
+ 1.252845 2 5 sctp 1500 -------D 0 2.0 5.0 1 142 205 0 141
+ 1.252845 2 5 sctp 1500 -------D 0 2.0 5.0 1 143 206 0 142
- 1.254042 2 5 sctp 1500 -------D 0 2.0 5.0 1 138 201 0 137
- 1.255242 2 5 sctp 1500 -------D 0 2.0 5.0 1 142 205 0 141
- 1.256442 2 5 sctp 1500 -------D 0 2.0 5.0 1 143 206 0 142
+ 1.257642 2 5 sctp 1500 -------D 0 2.0 5.0 1 147 210 0 146
+ 1.257642 2 5 sctp 1500 -------D 0 2.0 5.0 1 148 211 0 147
- 1.257642 2 5 sctp 1500 -------D 0 2.0 5.0 1 147 210 0 146
- 1.258842 2 5 sctp 1500 -------D 0 2.0 5.0 1 148 211 0 147
r 1.273842 2 5 sctp 1500 -------D 0 2.0 5.0 1 106 169 0 105
r 1.275042 2 5 sctp 1500 -------D 0 2.0 5.0 1 107 170 0 106
r 1.276242 2 5 sctp 1500 -------D 0 2.0 5.0 1 108 171 0 107
r 1.277442 2 5 sctp 1500 -------D 0 2.0 5.0 1 110 173 0 109
r 1.278642 2 5 sctp 1500 -------D 0 2.0 5.0 1 111 174 0 110
r 1.279842 2 5 sctp 1500 -------D 0 2.0 5.0 1 112 175 0 111
r 1.281042 2 5 sctp 1500 -------D 0 2.0 5.0 1 114 177 0 113
r 1.282242 2 5 sctp 1500 -------D 0 2.0 5.0 1 115 178 0 114
r 1.283442 2 5 sctp 1500 -------D 0 2.0 5.0 1 116 179 0 115
r 1.284642 2 5 sctp 1500 -------D 0 2.0 5.0 1 118 181 0 117
r 1.285842 2 5 sctp 1500 -------D 0 2.0 5.0 1 119 182 0 118
r 1.287042 2 5 sctp 1500 -------D 0 2.0 5.0 1 120 183 0 119
r 1.288242 2 5 sctp 1500 -------D 0 2.0 5.0 1 122 185 0 121
r 1.289442 2 5 sctp 1500 -------D 0 2.0 5.0 1 123 186 0 122
r 1.290642 2 5 sctp 1500 -------D 0 2.0 5.0 1 124 187 0 123
r 1.291842 2 5 sctp 1500 -------D 0 2.0 5.0 1 126 189 0 125
r 1.293042 2 5 sctp 1500 -------D 0 2.0 5.0 1 127 190 0 126
r 1.294242 2 5 sctp 1500 -------D 0 2.0 5.0 1 128 191 0 127
r 1.295442 2 5 sctp 1500 -------D 0 2.0 5.0 1 131 194 0 130
r 1.296642 2 5 sctp 1500 -------D 0 2.0 5.0 1 134 197 0 133
r 1.297842 2 5 sctp 1500 -------D 0 2.0 5.0 1 136 199 0 135
r 1.299042 2 5 sctp 1500 -------D 0 2.0 5.0 1 137 200 0 136
r 1.300242 2 5 sctp 1500 -------D 0 2.0 5.0 1 138 201 0 137
r 1.301442 2 5 sctp 1500 -------D 0 2.0 5.0 1 142 205 0 141
r 1.302642 2 5 sctp 1500 -------D 0 2.0 5.0 1 143 206 0 142
r 1.303842 2 5 sctp 1500 -------D 0 2.0 5.0 1 147 210 0 146
r 1.305042 2 5 sctp 1500 -------D 0 2.0 5.0 1 148 211 0 147
+ 1.320086 2 5 sctp 1500 -------D 0 2.0 5.0 1 151 236 0 150
- 1.320086 2 5 sctp 1500 -------D 0 2.0 5.0 1 151 236 0 150
+ 1.323683 2 5 sctp 1500 -------D 0 2.0 5.0 1 155 240 0 154
- 1.323683 2 5 sctp 1500 -------D 0 2.0 5.0 1 155 240 0 154
+ 1.327283 2 5 sctp 1500 -------D 0 2.0 5.0 1 158 243 0 157
- 1.327283 2 5 sctp 1500 -------D 0 2.0 5.0 1 158 243 0 157
+ 1.327283 2 5 sctp 1500 -------D 0 2.0 5.0 1 159 244 0 158
- 1.328483 2 5 sctp 1500 -------D 0 2.0 5.0 1 159 244 0 158
+ 1.32969 2 5 sctp 1500 -------D 0 2.0 5.0 1 162 247 0 161
- 1.32969 2 5 sctp 1500 -------D 0 2.0 5.0 1 162 247 0 161
+ 1.333286 2 5 sctp 1500 -------D 0 2.0 5.0 1 164 249 0 163
- 1.333286 2 5 sctp 1500 -------D 0 2.0 5.0 1 164 249 0 163
+ 1.333286 2 5 sctp 1500 -------D 0 2.0 5.0 1 165 250 0 164
- 1.334486 2 5 sctp 1500 -------D 0 2.0 5.0 1 165 250 0 164
+ 1.335686 2 5 sctp 1500 -------D 0 2.0 5.0 1 168 253 0 167
+ 1.335686 2 5 sctp 1500 -------D 0 2.0 5.0 1 169 254 0 168
- 1.335686 2 5 sctp 1500 -------D 0 2.0 5.0 1 168 253 0 167
- 1.336886 2 5 sctp 1500 -------D 0 2.0 5.0 1 169 254 0 168
+ 1.33809 2 5 sctp 1500 -------D 0 2.0 5.0 1 171 256 0 170
- 1.33809 2 5 sctp 1500 -------D 0 2.0 5.0 1 171 256 0 170
+ 1.340483 2 5 sctp 1500 -------D 0 2.0 5.0 1 176 261 0 175
- 1.340483 2 5 sctp 1500 -------D 0 2.0 5.0 1 176 261 0 175
+ 1.340483 2 5 sctp 1500 -------D 0 2.0 5.0 1 177 262 0 176
- 1.341683 2 5 sctp 1500 -------D 0 2.0 5.0 1 177 262 0 176
+ 1.342886 2 5 sctp 1500 -------D 0 2.0 5.0 1 180 265 0 179
- 1.342886 2 5 sctp 1500 -------D 0 2.0 5.0 1 180 265 0 179
+ 1.346483 2 5 sctp 1500 -------D 0 2.0 5.0 1 182 267 0 181
- 1.346483 2 5 sctp 1500 -------D 0 2.0 5.0 1 182 267 0 181
+ 1.346483 2 5 sctp 1500 -------D 0 2.0 5.0 1 183 268 0 182
+ 1.346483 2 5 sctp 1500 -------D 0 2.0 5.0 1 184 269 0 183
+ 1.346483 2 5 sctp 1500 -------D 0 2.0 5.0 1 185 270 0 184
- 1.347683 2 5 sctp 1500 -------D 0 2.0 5.0 1 183 268 0 182
+ 1.34888 2 5 sctp 1500 -------D 0 2.0 5.0 1 187 272 0 186
+ 1.34888 2 5 sctp 1500 -------D 0 2.0 5.0 1 188 273 0 187
+ 1.34888 2 5 sctp 1500 -------D 0 2.0 5.0 1 189 274 0 188
+ 1.34888 2 5 sctp 1500 -------D 0 2.0 5.0 1 190 275 0 189
- 1.348883 2 5 sctp 1500 -------D 0 2.0 5.0 1 184 269 0 183
- 1.350083 2 5 sctp 1500 -------D 0 2.0 5.0 1 185 270 0 184
- 1.351283 2 5 sctp 1500 -------D 0 2.0 5.0 1 187 272 0 186
- 1.352483 2 5 sctp 1500 -------D 0 2.0 5.0 1 188 273 0 187
- 1.353683 2 5 sctp 1500 -------D 0 2.0 5.0 1 189 274 0 188
- 1.354883 2 5 sctp 1500 -------D 0 2.0 5.0 1 190 275 0 189
r 1.366286 2 5 sctp 1500 -------D 0 2.0 5.0 1 151 236 0 150
r 1.369883 2 5 sctp 1500 -------D 0 2.0 5.0 1 155 240 0 154
r 1.373483 2 5 sctp 1500 -------D 0 2.0 5.0 1 158 243 0 157
r 1.374683 2 5 sctp 1500 -------D 0 2.0 5.0 1 159 244 0 158
r 1.37589 2 5 sctp 1500 -------D 0 2.0 5.0 1 162 247 0 161
r 1.379486 2 5 sctp 1500 -------D 0 2.0 5.0 1 164 249 0 163
r 1.380686 2 5 sctp 1500 -------D 0 2.0 5.0 1 165 250 0 164
r 1.381886 2 5 sctp 1500 -------D 0 2.0 5.0 1 168 253 0 167
r 1.383086 2 5 sctp 1500 -------D 0 2.0 5.0 1 169 254 0 168
r 1.38429 2 5 sctp 1500 -------D 0 2.0 5.0 1 171 256 0 170
r 1.386683 2 5 sctp 1500 -------D 0 2.0 5.0 1 176 261 0 175
r 1.387883 2 5 sctp 1500 -------D 0 2.0 5.0 1 177 262 0 176
r 1.389086 2 5 sctp 1500 -------D 0 2.0 5.0 1 180 265 0 179
r 1.392683 2 5 sctp 1500 -------D 0 2.0 5.0 1 182 267 0 181
r 1.393883 2 5 sctp 1500 -------D 0 2.0 5.0 1 183 268 0 182
r 1.395083 2 5 sctp 1500 -------D 0 2.0 5.0 1 184 269 0 183
r 1.396283 2 5 sctp 1500 -------D 0 2.0 5.0 1 185 270 0 184
r 1.397483 2 5 sctp 1500 -------D 0 2.0 5.0 1 187 272 0 186
r 1.398683 2 5 sctp 1500 -------D 0 2.0 5.0 1 188 273 0 187
r 1.399883 2 5 sctp 1500 -------D 0 2.0 5.0 1 189 274 0 188
r 1.401083 2 5 sctp 1500 -------D 0 2.0 5.0 1 190 275 0 189
+ 1.411318 2 5 sctp 1500 -------D 0 2.0 5.0 1 193 300 0 192
- 1.411318 2 5 sctp 1500 -------D 0 2.0 5.0 1 193 300 0 192
+ 1.411318 2 5 sctp 1500 -------D 0 2.0 5.0 1 194 301 0 193
- 1.412518 2 5 sctp 1500 -------D 0 2.0 5.0 1 194 301 0 193
+ 1.414925 2 5 sctp 1500 -------D 0 2.0 5.0 1 197 304 0 196
- 1.414925 2 5 sctp 1500 -------D 0 2.0 5.0 1 197 304 0 196
+ 1.418522 2 5 sctp 1500 -------D 0 2.0 5.0 1 201 308 0 200
- 1.418522 2 5 sctp 1500 -------D 0 2.0 5.0 1 201 308 0 200
+ 1.418522 2 5 sctp 1500 -------D 0 2.0 5.0 1 202 309 0 201
- 1.419722 2 5 sctp 1500 -------D 0 2.0 5.0 1 202 309 0 201
+ 1.420928 2 5 sctp 1500 -------D 0 2.0 5.0 1 205 312 0 204
- 1.420928 2 5 sctp 1500 -------D 0 2.0 5.0 1 205 312 0 204
+ 1.420928 2 5 sctp 1500 -------D 0 2.0 5.0 1 206 313 0 205
- 1.422128 2 5 sctp 1500 -------D 0 2.0 5.0 1 206 313 0 205
+ 1.425725 2 5 sctp 1500 -------D 0 2.0 5.0 1 209 316 0 208
- 1.425725 2 5 sctp 1500 -------D 0 2.0 5.0 1 209 316 0 208
+ 1.425725 2 5 sctp 1500 -------D 0 2.0 5.0 1 210 317 0 209
- 1.426925 2 5 sctp 1500 -------D 0 2.0 5.0 1 210 317 0 209
+ 1.428125 2 5 sctp 1500 -------D 0 2.0 5.0 1 213 320 0 212
+ 1.428125 2 5 sctp 1500 -------D 0 2.0 5.0 1 214 321 0 213
- 1.428125 2 5 sctp 1500 -------D 0 2.0 5.0 1 213 320 0 212
- 1.429325 2 5 sctp 1500 -------D 0 2.0 5.0 1 214 321 0 213
+ 1.432925 2 5 sctp 1500 -------D 0 2.0 5.0 1 217 324 0 216
- 1.432925 2 5 sctp 1500 -------D 0 2.0 5.0 1 217 324 0 216
+ 1.435325 2 5 sctp 1500 -------D 0 2.0 5.0 1 219 326 0 218
- 1.435325 2 5 sctp 1500 -------D 0 2.0 5.0 1 219 326 0 218
+ 1.435325 2 5 sctp 1500 -------D 0 2.0 5.0 1 220 327 0 219
+ 1.435325 2 5 sctp 1500 -------D 0 2.0 5.0 1 221 328 0 220
- 1.436525 2 5 sctp 1500 -------D 0 2.0 5.0 1 220 327 0 219
- 1.437725 2 5 sctp 1500 -------D 0 2.0 5.0 1 221 328 0 220
+ 1.438925 2 5 sctp 1500 -------D 0 2.0 5.0 1 223 330 0 222
+ 1.438925 2 5 sctp 1500 -------D 0 2.0 5.0 1 224 331 0 223
- 1.438925 2 5 sctp 1500 -------D 0 2.0 5.0 1 223 330 0 222
- 1.440125 2 5 sctp 1500 -------D 0 2.0 5.0 1 224 331 0 223
+ 1.441322 2 5 sctp 1500 -------D 0 2.0 5.0 1 229 336 0 228
+ 1.441322 2 5 sctp 1500 -------D 0 2.0 5.0 1 230 337 0 229
- 1.441325 2 5 sctp 1500 -------D 0 2.0 5.0 1 229 336 0 228
- 1.442525 2 5 sctp 1500 -------D 0 2.0 5.0 1 230 337 0 229
+ 1.443725 2 5 sctp 1500 -------D 0 2.0 5.0 1 232 339 0 231
- 1.443725 2 5 sctp 1500 -------D 0 2.0 5.0 1 232 339 0 231
r 1.457518 2 5 sctp 1500 -------D 0 2.0 5.0 1 193 300 0 192
r 1.458718 2 5 sctp 1500 -------D 0 2.0 5.0 1 194 301 0 193
r 1.461125 2 5 sctp 1500 -------D 0 2.0 5.0 1 197 304 0 196
r 1.464722 2 5 sctp 1500 -------D 0 2.0 5.0 1 201 308 0 200
r 1.465922 2 5 sctp 1500 -------D 0 2.0 5.0 1 202 309 0 201
r 1.467128 2 5 sctp 1500 -------D 0 2.0 5.0 1 205 312 0 204
r 1.468328 2 5 sctp 1500 -------D 0 2.0 5.0 1 206 313 0 205
r 1.471925 2 5 sctp 1500 -------D 0 2.0 5.0 1 209 316 0 208
r 1.473125 2 5 sctp 1500 -------D 0 2.0 5.0 1 210 317 0 209
r 1.474325 2 5 sctp 1500 -------D 0 2.0 5.0 1 213 320 0 212
r 1.475525 2 5 sctp 1500 -------D 0 2.0 5.0 1 214 321 0 213
r 1.479125 2 5 sctp 1500 -------D 0 2.0 5.0 1 217 324 0 216
r 1.481525 2 5 sctp 1500 -------D 0 2.0 5.0 1 219 326 0 218
r 1.482725 2 5 sctp 1500 -------D 0 2.0 5.0 1 220 327 0 219
r 1.483925 2 5 sctp 1500 -------D 0 2.0 5.0 1 221 328 0 220
r 1.485125 2 5 sctp 1500 -------D 0 2.0 5.0 1 223 330 0 222
r 1.486325 2 5 sctp 1500 -------D 0 2.0 5.0 1 224 331 0 223
r 1.487525 2 5 sctp 1500 -------D 0 2.0 5.0 1 229 336 0 228
r 1.488725 2 5 sctp 1500 -------D 0 2.0 5.0 1 230 337 0 229
r 1.489925 2 5 sctp 1500 -------D 0 2.0 5.0 1 232 339 0 231
+ 1.503757 2 5 sctp 1500 -------D 0 2.0 5.0 1 237 366 0 236
- 1.503757 2 5 sctp 1500 -------D 0 2.0 5.0 1 237 366 0 236
+ 1.503757 2 5 sctp 1500 -------D 0 2.0 5.0 1 238 367 0 237
- 1.504957 2 5 sctp 1500 -------D 0 2.0 5.0 1 238 367 0 237
+ 1.508557 2 5 sctp 1500 -------D 0 2.0 5.0 1 241 370 0 240
- 1.508557 2 5 sctp 1500 -------D 0 2.0 5.0 1 241 370 0 240
+ 1.508557 2 5 sctp 1500 -------D 0 2.0 5.0 1 242 371 0 241
- 1.509757 2 5 sctp 1500 -------D 0 2.0 5.0 1 242 371 0 241
+ 1.51096 2 5 sctp 1500 -------D 0 2.0 5.0 1 244 373 0 243
- 1.51096 2 5 sctp 1500 -------D 0 2.0 5.0 1 244 373 0 243
+ 1.51096 2 5 sctp 1500 -------D 0 2.0 5.0 1 245 374 0 244
+ 1.51096 2 5 sctp 1500 -------D 0 2.0 5.0 1 246 375 0 245
- 1.51216 2 5 sctp 1500 -------D 0 2.0 5.0 1 245 374 0 244
- 1.51336 2 5 sctp 1500 -------D 0 2.0 5.0 1 246 375 0 245
+ 1.513366 2 5 sctp 1500 -------D 0 2.0 5.0 1 248 377 0 247
+ 1.513366 2 5 sctp 1500 -------D 0 2.0 5.0 1 249 378 0 248
+ 1.513366 2 5 sctp 1500 -------D 0 2.0 5.0 1 250 379 0 249
- 1.51456 2 5 sctp 1500 -------D 0 2.0 5.0 1 248 377 0 247
- 1.51576 2 5 sctp 1500 -------D 0 2.0 5.0 1 249 378 0 248
- 1.51696 2 5 sctp 1500 -------D 0 2.0 5.0 1 250 379 0 249
+ 1.518163 2 5 sctp 1500 -------D 0 2.0 5.0 1 252 381 0 251
- 1.518163 2 5 sctp 1500 -------D 0 2.0 5.0 1 252 381 0 251
+ 1.518163 2 5 sctp 1500 -------D 0 2.0 5.0 1 253 382 0 252
+ 1.518163 2 5 sctp 1500 -------D 0 2.0 5.0 1 254 383 0 253
- 1.519363 2 5 sctp 1500 -------D 0 2.0 5.0 1 253 382 0 252
+ 1.520563 2 5 sctp 1500 -------D 0 2.0 5.0 1 256 385 0 255
+ 1.520563 2 5 sctp 1500 -------D 0 2.0 5.0 1 257 386 0 256
+ 1.520563 2 5 sctp 1500 -------D 0 2.0 5.0 1 258 387 0 257
- 1.520563 2 5 sctp 1500 -------D 0 2.0 5.0 1 254 383 0 253
- 1.521763 2 5 sctp 1500 -------D 0 2.0 5.0 1 256 385 0 255
- 1.522963 2 5 sctp 1500 -------D 0 2.0 5.0 1 257 386 0 256
- 1.524163 2 5 sctp 1500 -------D 0 2.0 5.0 1 258 387 0 257
+ 1.525363 2 5 sctp 1500 -------D 0 2.0 5.0 1 261 390 0 260
+ 1.525363 2 5 sctp 1500 -------D 0 2.0 5.0 1 262 391 0 261
- 1.525363 2 5 sctp 1500 -------D 0 2.0 5.0 1 261 390 0 260
- 1.526563 2 5 sctp 1500 -------D 0 2.0 5.0 1 262 391 0 261
+ 1.528966 2 5 sctp 1500 -------D 0 2.0 5.0 1 265 394 0 264
- 1.528966 2 5 sctp 1500 -------D 0 2.0 5.0 1 265 394 0 264
+ 1.528966 2 5 sctp 1500 -------D 0 2.0 5.0 1 266 395 0 265
- 1.530166 2 5 sctp 1500 -------D 0 2.0 5.0 1 266 395 0 265
+ 1.53256 2 5 sctp 1500 -------D 0 2.0 5.0 1 268 397 0 267
- 1.53256 2 5 sctp 1500 -------D 0 2.0 5.0 1 268 397 0 267
+ 1.53256 2 5 sctp 1500 -------D 0 2.0 5.0 1 269 398 0 268
+ 1.53256 2 5 sctp 1500 -------D 0 2.0 5.0 1 270 399 0 269
- 1.53376 2 5 sctp 1500 -------D 0 2.0 5.0 1 269 398 0 268
+ 1.53496 2 5 sctp 1500 -------D 0 2.0 5.0 1 272 401 0 271
+ 1.53496 2 5 sctp 1500 -------D 0 2.0 5.0 1 273 402 0 272
+ 1.53496 2 5 sctp 1500 -------D 0 2.0 5.0 1 274 403 0 273
- 1.53496 2 5 sctp 1500 -------D 0 2.0 5.0 1 270 399 0 269
- 1.53616 2 5 sctp 1500 -------D 0 2.0 5.0 1 272 401 0 271
- 1.53736 2 5 sctp 1500 -------D 0 2.0 5.0 1 273 402 0 272
+ 1.53856 2 5 sctp 1500 -------D 0 2.0 5.0 1 277 406 0 276
+ 1.53856 2 5 sctp 1500 -------D 0 2.0 5.0 1 278 407 0 277
- 1.53856 2 5 sctp 1500 -------D 0 2.0 5.0 1 274 403 0 273
- 1.53976 2 5 sctp 1500 -------D 0 2.0 5.0 1 277 406 0 276
- 1.54096 2 5 sctp 1500 -------D 0 2.0 5.0 1 278 407 0 277
r 1.549957 2 5 sctp 1500 -------D 0 2.0 5.0 1 237 366 0 236
r 1.551157 2 5 sctp 1500 -------D 0 2.0 5.0 1 238 367 0 237
r 1.554757 2 5 sctp 1500 -------D 0 2.0 5.0 1 241 370 0 240
r 1.555957 2 5 sctp 1500 -------D 0 2.0 5.0 1 242 371 0 241
r 1.55716 2 5 sctp 1500 -------D 0 2.0 5.0 1 244 373 0 243
r 1.55836 2 5 sctp 1500 -------D 0 2.0 5.0 1 245 374 0 244
r 1.55956 2 5 sctp 1500 -------D 0 2.0 5.0 1 246 375 0 245
r 1.56076 2 5 sctp 1500 -------D 0 2.0 5.0 1 248 377 0 247
r 1.56196 2 5 sctp 1500 -------D 0 2.0 5.0 1 249 378 0 248
r 1.56316 2 5 sctp 1500 -------D 0 2.0 5.0 1 250 379 0 249
r 1.564363 2 5 sctp 1500 -------D 0 2.0 5.0 1 252 381 0 251
r 1.565563 2 5 sctp 1500 -------D 0 2.0 5.0 1 253 382 0 252
r 1.566763 2 5 sctp 1500 -------D 0 2.0 5.0 1 254 383 0 253
r 1.567963 2 5 sctp 1500 -------D 0 2.0 5.0 1 256 385 0 255
r 1.569163 2 5 sctp 1500 -------D 0 2.0 5.0 1 257 386 0 256
r 1.570363 2 5 sctp 1500 -------D 0 2.0 5.0 1 258 387 0 257
r 1.571563 2 5 sctp 1500 -------D 0 2.0 5.0 1 261 390 0 260
r 1.572763 2 5 sctp 1500 -------D 0 2.0 5.0 1 262 391 0 261
r 1.575166 2 5 sctp 1500 -------D 0 2.0 5.0 1 265 394 0 264
r 1.576366 2 5 sctp 1500 -------D 0 2.0 5.0 1 266 395 0 265
r 1.57876 2 5 sctp 1500 -------D 0 2.0 5.0 1 268 397 0 267
r 1.57996 2 5 sctp 1500 -------D 0 2.0 5.0 1 269 398 0 268
r 1.58116 2 5 sctp 1500 -------D 0 2.0 5.0 1 270 399 0 269
r 1.58236 2 5 sctp 1500 -------D 0 2.0 5.0 1 272 401 0 271
r 1.58356 2 5 sctp 1500 -------D 0 2.0 5.0 1 273 402 0 272
r 1.58476 2 5 sctp 1500 -------D 0 2.0 5.0 1 274 403 0 273
r 1.58596 2 5 sctp 1500 -------D 0 2.0 5.0 1 277 406 0 276
r 1.58716 2 5 sctp 1500 -------D 0 2.0 5.0 1 278 407 0 277
+ 1.596195 2 5 sctp 1500 -------D 0 2.0 5.0 1 281 432 0 280
- 1.596195 2 5 sctp 1500 -------D 0 2.0 5.0 1 281 432 0 280
+ 1.596195 2 5 sctp 1500 -------D 0 2.0 5.0 1 282 433 0 281
- 1.597395 2 5 sctp 1500 -------D 0 2.0 5.0 1 282 433 0 281
+ 1.600995 2 5 sctp 1500 -------D 0 2.0 5.0 1 285 436 0 284
- 1.600995 2 5 sctp 1500 -------D 0 2.0 5.0 1 285 436 0 284
+ 1.600995 2 5 sctp 1500 -------D 0 2.0 5.0 1 286 437 0 285
- 1.602195 2 5 sctp 1500 -------D 0 2.0 5.0 1 286 437 0 285
+ 1.603411 2 5 sctp 1500 -------D 0 2.0 5.0 1 289 440 0 288
- 1.603411 2 5 sctp 1500 -------D 0 2.0 5.0 1 289 440 0 288
+ 1.608198 2 5 sctp 1500 -------D 0 2.0 5.0 1 293 444 0 292
- 1.608198 2 5 sctp 1500 -------D 0 2.0 5.0 1 293 444 0 292
+ 1.608198 2 5 sctp 1500 -------D 0 2.0 5.0 1 294 445 0 293
- 1.609398 2 5 sctp 1500 -------D 0 2.0 5.0 1 294 445 0 293
+ 1.610608 2 5 sctp 1500 -------D 0 2.0 5.0 1 297 448 0 296
- 1.610608 2 5 sctp 1500 -------D 0 2.0 5.0 1 297 448 0 296
+ 1.615402 2 5 sctp 1500 -------D 0 2.0 5.0 1 301 452 0 300
- 1.615402 2 5 sctp 1500 -------D 0 2.0 5.0 1 301 452 0 300
+ 1.617802 2 5 sctp 1500 -------D 0 2.0 5.0 1 305 456 0 304
- 1.617802 2 5 sctp 1500 -------D 0 2.0 5.0 1 305 456 0 304
+ 1.617802 2 5 sctp 1500 -------D 0 2.0 5.0 1 306 457 0 305
- 1.619002 2 5 sctp 1500 -------D 0 2.0 5.0 1 306 457 0 305
+ 1.621405 2 5 sctp 1500 -------D 0 2.0 5.0 1 309 460 0 308
- 1.621405 2 5 sctp 1500 -------D 0 2.0 5.0 1 309 460 0 308
+ 1.621405 2 5 sctp 1500 -------D 0 2.0 5.0 1 310 461 0 309
- 1.622605 2 5 sctp 1500 -------D 0 2.0 5.0 1 310 461 0 309
+ 1.625005 2 5 sctp 1500 -------D 0 2.0 5.0 1 313 464 0 312
- 1.625005 2 5 sctp 1500 -------D 0 2.0 5.0 1 313 464 0 312
+ 1.628602 2 5 sctp 1500 -------D 0 2.0 5.0 1 316 467 0 315
- 1.628602 2 5 sctp 1500 -------D 0 2.0 5.0 1 316 467 0 315
+ 1.629798 2 5 sctp 1500 -------D 0 2.0 5.0 1 319 470 0 318
+ 1.629798 2 5 sctp 1500 -------D 0 2.0 5.0 1 320 471 0 319
- 1.629802 2 5 sctp 1500 -------D 0 2.0 5.0 1 319 470 0 318
- 1.631002 2 5 sctp 1500 -------D 0 2.0 5.0 1 320 471 0 319
+ 1.633398 2 5 sctp 1500 -------D 0 2.0 5.0 1 322 473 0 321
- 1.633398 2 5 sctp 1500 -------D 0 2.0 5.0 1 322 473 0 321
+ 1.633398 2 5 sctp 1500 -------D 0 2.0 5.0 1 323 474 0 322
+ 1.633398 2 5 sctp 1500 -------D 0 2.0 5.0 1 324 475 0 323
- 1.634598 2 5 sctp 1500 -------D 0 2.0 5.0 1 323 474 0 322
- 1.635798 2 5 sctp 1500 -------D 0 2.0 5.0 1 324 475 0 323
r 1.642395 2 5 sctp 1500 -------D 0 2.0 5.0 1 281 432 0 280
r 1.643595 2 5 sctp 1500 -------D 0 2.0 5.0 1 282 433 0 281
r 1.647195 2 5 sctp 1500 -------D 0 2.0 5.0 1 285 436 0 284
r 1.648395 2 5 sctp 1500 -------D 0 2.0 5.0 1 286 437 0 285
r 1.649611 2 5 sctp 1500 -------D 0 2.0 5.0 1 289 440 0 288
r 1.654398 2 5 sctp 1500 -------D 0 2.0 5.0 1 293 444 0 292
r 1.655598 2 5 sctp 1500 -------D 0 2.0 5.0 1 294 445 0 293